# LAMMPS data file written by OVITO Pro 3.11.1

17969 atoms
3 atom types

0.0 244.2779652866 xlo xhi
0.0 244.124271321 ylo yhi
0.0 200.0 zlo zhi

Masses

1 59.0
2 55.8
3 58.7

Atoms  # atomic

7863 2 113.6818683197 118.07089476 64.4992562579 0 0 0
12752 3 117.337286102 116.8964569363 64.2898575205 0 0 0
11784 3 108.4869737593 123.5952911459 66.6024281394 0 0 0
14077 3 115.9445642205 126.3876261067 64.2462045816 0 0 0
1239 3 112.4704671557 125.1536507347 63.1368544327 0 0 0
1296 1 114.2454742141 120.9543638048 65.2425847267 0 0 0
5548 1 116.8426768923 124.4136813674 63.3827149327 0 0 0
13301 2 118.6079869575 126.6588696767 62.5886922532 0 0 0
11879 2 119.6418202031 124.1441898964 63.4186138767 0 0 0
11050 1 121.1276886667 122.2508000697 65.261554444 0 0 0
9684 1 120.6822091282 126.0898664531 67.353933829 0 0 0
4581 2 108.2010653538 131.0310927522 66.2772853809 0 0 0
6134 3 112.7641291445 132.2148640395 63.6595952675 0 0 0
16081 2 108.4207091522 126.2586929254 65.2721897545 0 0 0
17397 3 113.9859777459 127.9381592834 63.1282728237 0 0 0
8341 2 112.0476001159 128.1415314352 64.5581860167 0 0 0
7054 2 117.257835209 128.4030727664 63.3158707458 0 0 0
5410 1 115.7528211186 132.0901722522 66.154772272 0 0 0
14681 2 115.0912188161 130.0503937765 63.3203659661 0 0 0
6799 1 115.5226031816 126.8191921168 62.1334941552 0 0 0
11521 1 113.8103213968 125.6255035267 64.9518422361 0 0 0
12657 2 110.7851511735 133.8742920678 64.5446787582 0 0 0
848 1 113.4565558372 129.9996394669 64.8443252254 0 0 0
13873 1 114.2874932205 127.7307796401 65.9845612533 0 0 0
2830 1 116.2472401742 129.5175825296 65.2720347 0 0 0
16506 3 120.2342625674 126.9381873789 64.7936961986 0 0 0
7340 1 120.1664179071 131.873744309 66.1786613984 0 0 0
2838 1 118.1452627531 125.5597366755 64.8149109382 0 0 0
16765 1 119.9937608781 129.469864458 64.2226025414 0 0 0
13290 2 118.3468162808 131.2063665081 64.563922744 0 0 0
354 3 118.5464846299 135.0390666912 64.8344599663 0 0 0
3370 2 114.6459657751 135.7225756511 62.9398837736 0 0 0
14952 2 116.077837975 134.1928958509 64.6542174832 0 0 0
3347 2 116.8174749314 136.4148169369 63.734132518 0 0 0
809 2 114.7108204995 138.5876823673 63.6028562681 0 0 0
1334 2 119.0868294455 102.0658829032 71.4560940841 0 0 0
5728 2 103.6424800337 107.90873859 73.8660415954 0 0 0
16344 1 111.5922667482 105.0176122782 69.9710083616 0 0 0
4812 1 110.0135694942 112.1043055958 68.8981255838 0 0 0
13530 3 108.6772512433 107.6859405905 71.1109467178 0 0 0
5709 1 109.0825009784 109.8658283683 70.3097536159 0 0 0
8203 1 106.5423556192 109.8230808316 69.9679034653 0 0 0
1315 2 111.3612954007 110.1706784986 70.1010999463 0 0 0
3579 3 112.360819659 111.5056963661 71.5118100238 0 0 0
51 2 105.3805226084 111.7926456574 70.5786006406 0 0 0
9707 2 113.3837277988 106.7250317812 69.5543390079 0 0 0
11620 2 112.9733756006 112.7593865309 69.2627752001 0 0 0
8219 3 112.8519455041 105.9451720588 72.1002036311 0 0 0
8000 3 111.2180514539 107.6746959898 70.9942604065 0 0 0
16127 2 115.1895452556 101.7931464866 72.7002463354 0 0 0
6453 3 114.7703258683 111.8509636725 67.4137691939 0 0 0
2049 2 116.1864334824 106.5954966847 70.0889056819 0 0 0
17537 2 116.3656360223 105.6741144443 72.2527267162 0 0 0
2583 1 117.5268632932 110.5229234114 70.8341605959 0 0 0
1097 1 117.489594673 109.8956000086 68.6425945901 0 0 0
1393 3 116.0963429558 110.0373479583 66.9253904877 0 0 0
17433 1 113.3162160307 109.0898072559 69.8872408842 0 0 0
2719 2 112.6040579069 109.1970422936 72.2875077958 0 0 0
1476 1 119.0795843819 104.9799916941 68.7373200757 0 0 0
16140 1 115.7803978216 108.9145221994 70.1878218635 0 0 0
17625 3 118.4708427086 107.9479883807 70.7627913509 0 0 0
2817 2 114.8423240762 103.8910491042 70.802477889 0 0 0
5859 2 118.076907703 107.1600630748 68.0991477569 0 0 0
6367 2 119.9881526307 108.4148105224 65.8757263643 0 0 0
7862 2 114.783413593 110.3938193876 71.8178577529 0 0 0
13950 2 114.8072184365 111.4579527541 69.6563569875 0 0 0
290 1 111.8118334182 103.2576995114 72.3771903735 0 0 0
6271 2 120.8427773461 103.8676397847 70.7996031418 0 0 0
5987 3 121.9068473711 105.3118192749 69.1007952008 0 0 0
14774 1 124.7701456994 102.65205941 72.1050056795 0 0 0
2916 2 121.4404170033 107.2697895636 67.3476062859 0 0 0
4024 2 125.1372196839 105.0665736103 69.4280947981 0 0 0
6767 1 123.4083446481 104.2367309252 70.8556970641 0 0 0
2228 1 123.1449052412 107.0780557513 70.0411341832 0 0 0
7329 3 120.2561203894 106.9569653267 69.4861895955 0 0 0
1001 2 125.9588904788 104.9346653553 71.6370084743 0 0 0
824 1 124.9276928561 109.4165095654 70.2810922958 0 0 0
1984 2 122.192084164 109.3065732214 69.0463598648 0 0 0
757 3 124.4007086859 106.381071067 72.222829677 0 0 0
7172 3 121.8571996654 105.991853976 71.3431934471 0 0 0
5899 3 126.0963583305 111.6018585017 69.9181684298 0 0 0
3751 1 125.8936914904 107.0104511541 69.9954983038 0 0 0
7282 3 126.4772754978 108.8380478128 68.4557393432 0 0 0
5174 3 124.2494641578 107.9568999037 68.2878638616 0 0 0
2691 3 119.3711068151 105.6007874039 71.3344265211 0 0 0
3319 2 120.3537663975 109.5387689917 70.7492180236 0 0 0
2064 1 128.2840409333 110.7446321509 68.7680050496 0 0 0
9567 2 123.2524979781 111.7513993022 65.7749260021 0 0 0
1395 1 122.5252232324 109.2701343707 66.7227179085 0 0 0
1703 2 128.2218734287 104.5057377034 70.8831237261 0 0 0
14749 1 127.2988171035 109.1574448551 70.6959078378 0 0 0
1341 1 128.7830855648 106.8430501239 71.1988511045 0 0 0
754 2 132.3205635818 107.4721967597 69.6101042499 0 0 0
15363 3 130.0481505801 108.5655336327 69.4577327258 0 0 0
4497 3 134.643537812 108.0399692793 70.4436224845 0 0 0
10704 3 132.0275369243 109.0629028743 68.1149011035 0 0 0
2753 3 137.2100533531 107.5928238144 71.3794733294 0 0 0
5852 2 132.9968334438 105.5216888537 71.245258708 0 0 0
7149 2 132.0764299621 109.0941883404 70.9552482602 0 0 0
3394 3 134.7819971993 109.784599006 71.6544777301 0 0 0
3682 1 130.1954925236 105.0748415286 72.8312707892 0 0 0
2912 1 131.5977120503 107.1669402842 72.3611750596 0 0 0
3646 2 131.1155454476 111.153565868 71.9727179961 0 0 0
5735 3 133.7363104626 107.8112271074 72.7462008423 0 0 0
7060 2 136.9641713698 111.7261587423 68.1948086764 0 0 0
7829 2 132.5471182216 110.5260641374 66.0408272996 0 0 0
43 2 133.3941358907 110.7711652549 69.7625341175 0 0 0
194 3 133.6203340717 99.7677480326 74.7550865615 0 0 0
14700 1 135.3506993753 105.5521806355 72.5034204309 0 0 0
11215 2 137.9691947992 110.1352940031 71.5690293309 0 0 0
12077 1 136.3973788774 109.7018989779 69.5002158334 0 0 0
17233 1 136.0650701548 108.4689443932 73.2133893953 0 0 0
2451 3 100.9977686049 115.9192108161 73.6539835931 0 0 0
668 3 100.0229115388 114.1143873638 72.5743570019 0 0 0
10152 1 102.5434518777 117.4130681162 72.1300903777 0 0 0
1421 3 98.6470111574 114.9178828426 74.2703434403 0 0 0
12586 3 96.1053225465 118.6519478203 72.816825696 0 0 0
9834 3 98.2968555813 116.9349538361 72.6575524908 0 0 0
2534 1 102.1220277412 114.8213912571 71.6105063946 0 0 0
5661 2 101.0327492021 111.9642734674 72.2818208716 0 0 0
2410 3 103.9413128591 111.2284468539 72.422273647 0 0 0
807 2 110.0829481714 111.5128272524 71.7497259567 0 0 0
11218 1 104.1063034852 113.5317972373 72.410211225 0 0 0
1474 1 107.634645156 113.1091225545 67.4421233074 0 0 0
1062 3 107.1473868631 114.4517491445 70.5728311055 0 0 0
2748 3 104.25544334 115.8509215765 71.2323770032 0 0 0
15038 3 109.030197348 118.7546942724 68.3919237387 0 0 0
154 1 110.2577659004 116.0028237301 70.2806908441 0 0 0
11259 3 107.0373609088 115.7672989306 67.8661948559 0 0 0
1540 2 108.896127422 114.1765390974 69.2659499153 0 0 0
5615 1 107.294085806 118.7089758634 72.7134370196 0 0 0
10357 1 105.6782321134 117.4983741489 70.7274692255 0 0 0
10353 3 108.0720997368 111.9642876377 70.3745624978 0 0 0
8851 1 108.0354272833 116.783876152 69.8197780019 0 0 0
7125 3 108.0057322311 115.9351824642 72.2983045638 0 0 0
7164 3 103.8197471666 119.0117236868 68.8757666534 0 0 0
16335 2 108.6808973814 115.203274356 66.091109675 0 0 0
7336 1 104.7966115454 119.6829277308 71.7544874276 0 0 0
10396 2 110.0763205458 113.0012420561 66.4014936991 0 0 0
2163 2 109.6593836689 116.2272227602 67.9230003357 0 0 0
10561 2 98.8497444291 111.9345950644 73.5592810129 0 0 0
1836 1 115.542561741 115.6340006347 65.698330004 0 0 0
8718 2 113.1502198461 114.8347294759 64.8557608344 0 0 0
2070 2 111.1941759639 117.6801611069 67.4135298676 0 0 0
2680 2 114.655469804 113.1119296589 71.4418167886 0 0 0
15542 2 112.1805185287 110.8219006523 67.803644123 0 0 0
5640 2 110.9565901633 115.4027298142 72.368648297 0 0 0
5743 3 115.3287888708 113.9051138151 69.2881677037 0 0 0
309 3 112.0119252922 117.349461283 71.1197381708 0 0 0
4593 2 119.880792393 109.028576446 68.5097653733 0 0 0
2302 1 111.9090937057 116.2016873049 68.8712893499 0 0 0
2526 3 115.4132119987 110.8014328205 65.0898079213 0 0 0
6064 1 112.8388079566 114.9280961001 70.5387130184 0 0 0
2424 1 119.1241955996 110.8458183499 67.2037129893 0 0 0
1406 2 110.8847513345 116.0207203461 65.8170428761 0 0 0
2400 2 113.7814137292 114.3874614159 67.4957043859 0 0 0
5103 3 116.6624014878 116.5140715911 68.414739656 0 0 0
12537 3 119.0162154517 111.6472464587 69.4631483592 0 0 0
4992 1 110.9027380292 113.5889516345 70.6362840961 0 0 0
13461 2 117.17790435 112.1696805736 66.0725441019 0 0 0
10866 3 113.5880700079 116.6793651434 66.8967159504 0 0 0
9202 2 113.1069337499 112.4852466436 66.3054146942 0 0 0
1692 2 108.7916479185 117.7389704803 66.2739640894 0 0 0
6597 1 115.9559207899 113.89031362 67.2113086956 0 0 0
756 1 116.1758684253 115.2419189474 71.0953417659 0 0 0
2588 2 116.0224271814 117.6899726739 70.4806745929 0 0 0
6986 3 116.9231903648 112.2554185125 68.41257225 0 0 0
3272 1 118.2630793194 114.196190375 69.8062421266 0 0 0
3119 1 118.7218739368 113.2317382562 67.577851238 0 0 0
3857 1 111.2937791726 114.2128280799 67.9948576557 0 0 0
10553 3 114.9604340994 113.2491596796 65.1502303094 0 0 0
11114 2 118.1894482214 116.5212844572 70.7698609839 0 0 0
3079 2 117.3334392647 114.2783418026 64.3225191489 0 0 0
5493 1 113.7402459371 118.5244802775 71.2379271421 0 0 0
9866 1 114.8015966148 118.6907556488 68.4879241662 0 0 0
964 2 116.8461687859 112.7462390161 70.8538970341 0 0 0
10230 2 117.8615803995 109.9868913426 65.2186078882 0 0 0
2802 1 114.1092260392 118.584388232 73.9639504272 0 0 0
6601 3 120.4883459636 116.2539771708 70.7363032324 0 0 0
15490 3 110.3777908081 118.3603642095 70.1116709902 0 0 0
12383 2 114.4176853265 116.122254088 69.1970260776 0 0 0
3518 2 120.9235517289 110.7471067642 65.5815015402 0 0 0
1398 1 119.2357413072 111.8771049964 72.0692183082 0 0 0
3630 1 119.3384473052 112.8027815421 65.1203329122 0 0 0
3967 1 125.6534032118 117.5755967937 67.8558293709 0 0 0
6228 2 123.7709775927 112.0392072633 70.3203065935 0 0 0
11132 2 124.0548296968 110.8424665475 68.1237839901 0 0 0
11975 2 121.4727376577 111.8572250879 70.4175127855 0 0 0
9206 1 121.3238284875 111.1667403274 68.2548083961 0 0 0
4008 1 121.2871046884 113.0184665454 66.4392269077 0 0 0
4315 1 119.3180117674 115.4685942517 65.9435491767 0 0 0
14916 3 123.6765167151 117.3890029795 66.7098001818 0 0 0
4977 1 122.7387937732 113.1820651429 68.3531061082 0 0 0
696 2 117.2720671929 119.8381422048 65.5576733971 0 0 0
1723 3 125.0477640196 109.3069359299 66.0563392492 0 0 0
10322 3 120.2630621643 113.716739962 71.2980433399 0 0 0
6119 2 121.8097975432 115.2626651594 67.0172749114 0 0 0
5272 3 125.6041410203 112.1453906857 66.9481076992 0 0 0
13213 1 123.7386986642 117.7252162361 70.1731278823 0 0 0
1013 2 124.4594974124 115.8490214429 68.8850223475 0 0 0
4548 1 125.5817977252 117.1862034664 71.4194618732 0 0 0
85 1 124.2080792314 114.489400564 66.8209537005 0 0 0
5643 3 122.7609346375 114.1545216998 64.9764665308 0 0 0
5030 3 119.1513529569 116.2883430422 68.1063573745 0 0 0
5554 1 120.4279855663 114.2702006162 68.9274905848 0 0 0
435 2 126.4682606625 119.857480841 68.7471601188 0 0 0
1141 1 122.6756557997 114.107484235 70.4797160133 0 0 0
13669 1 121.1273570847 117.439748583 67.2069881705 0 0 0
14350 1 125.0830870133 114.6423344811 70.8255161883 0 0 0
2926 2 122.3155969033 116.171857958 69.0098508918 0 0 0
9736 2 125.2395939478 113.6035081885 68.7635614217 0 0 0
14717 3 121.0108237526 118.0137111647 69.5063305199 0 0 0
8383 3 124.9541299377 119.6493228339 71.3529816994 0 0 0
2836 2 126.665605448 115.2898096093 67.3744472546 0 0 0
2896 1 117.9261555914 117.7497318783 66.5485106932 0 0 0
13580 2 125.3951387705 111.6633844135 64.5628258853 0 0 0
16793 3 126.7047430269 115.8693158114 69.54300014 0 0 0
9031 2 127.5230380257 112.9897203721 67.5664415244 0 0 0
7344 3 134.3044348771 109.8811056318 67.8151326747 0 0 0
109 3 133.612044393 112.0070018203 72.3762989064 0 0 0
10685 3 127.9077606531 117.9309177105 68.3878142153 0 0 0
6599 3 127.3034660886 110.5087640899 66.5904028474 0 0 0
8661 2 127.6623194092 119.6978989761 66.6490480883 0 0 0
13196 3 128.0069828382 116.3558645162 72.9787660338 0 0 0
5411 3 127.3735411178 113.5549247706 69.7497002303 0 0 0
545 3 128.679091707 115.4381442284 70.810656306 0 0 0
8303 3 128.5290323807 116.7420133235 66.316994069 0 0 0
7373 2 126.3261033878 113.8066267741 65.3452921558 0 0 0
6598 1 128.7924832211 115.5036717649 68.4796739143 0 0 0
9018 2 130.6525945108 110.8385325481 69.9013105349 0 0 0
12373 3 130.4929010166 112.0946658523 66.3011856006 0 0 0
8464 2 128.7936085233 119.823047841 69.1494991958 0 0 0
17896 3 129.2868881647 114.4221241609 66.6236292024 0 0 0
4376 3 130.2223122988 110.270032757 67.4850530074 0 0 0
14034 1 131.22257008 114.0739768115 65.1553108558 0 0 0
5201 1 130.0917689072 117.4293368762 69.9205343631 0 0 0
4704 2 129.8152702263 118.7115135875 66.7342428347 0 0 0
6996 1 132.1099325649 111.8539279846 68.2063040125 0 0 0
11893 2 131.6272480321 114.2462307425 67.6659279666 0 0 0
1159 1 134.2944965727 114.1489759265 71.4431181103 0 0 0
8600 1 134.9724128097 118.9043279022 66.1261506761 0 0 0
9791 2 132.1394750699 116.8715462094 69.3767874593 0 0 0
1643 1 132.7980373476 115.9121315679 65.9693254247 0 0 0
8336 3 131.1963267604 119.4104619744 68.8836149419 0 0 0
4324 2 129.5326497533 113.1754398979 68.8396005799 0 0 0
1145 2 130.8965780137 116.8109371834 67.1650811709 0 0 0
3816 1 130.7667553996 115.0537417643 69.5889336394 0 0 0
14552 1 133.6540965174 118.5290503354 70.6589272849 0 0 0
1544 3 128.581379547 111.3831556286 70.9654213536 0 0 0
2431 3 131.9459802234 113.0429040926 70.2250413172 0 0 0
3065 2 132.8900310701 118.1223657545 67.5577647773 0 0 0
4602 1 135.1986350097 118.5108301363 68.3848122323 0 0 0
13395 3 133.6912274813 113.5878862098 68.2520223121 0 0 0
1550 3 127.8539366525 117.8124988828 70.8792375976 0 0 0
14872 2 131.428470377 119.4183910778 71.2066923641 0 0 0
913 2 131.8143924387 119.4015744401 65.5136972613 0 0 0
17357 2 129.2913482788 118.9110854855 72.2906827143 0 0 0
15143 1 129.4384627786 121.3887151035 71.7267093108 0 0 0
7303 1 129.7962154644 113.5776200526 71.3306857015 0 0 0
10124 3 131.9117048231 114.022960125 72.3050866634 0 0 0
7490 3 134.5341011364 118.3533556407 72.8480565522 0 0 0
7666 2 133.2909677936 112.8200140591 65.8777154967 0 0 0
7281 3 134.212452002 116.1860937832 68.443579603 0 0 0
5365 2 135.2606724079 116.4042438597 70.7300471738 0 0 0
11875 2 136.9112627689 117.6921865677 69.5969825277 0 0 0
11746 3 140.519624835 111.8114793264 71.9298500232 0 0 0
16907 2 142.8823296393 115.9565529627 71.6402604736 0 0 0
11483 3 135.6701930424 113.758891667 69.1834137947 0 0 0
1149 1 138.4096518756 116.069825441 71.434068602 0 0 0
16986 3 140.3745433297 114.4711612681 71.3154705131 0 0 0
8137 2 141.8886134238 117.168719042 69.7957873482 0 0 0
9284 2 138.7165144881 110.667246355 69.1606554717 0 0 0
13588 1 135.5534695332 111.9930381637 70.6278165245 0 0 0
3726 1 138.0203472588 113.0117373066 69.7036459672 0 0 0
3137 2 140.1925358179 115.3736288008 69.1531511089 0 0 0
12498 2 140.5872380147 112.7830766193 69.5933861515 0 0 0
4052 2 142.3535911916 114.3859769753 69.7620419512 0 0 0
9191 3 137.5527623621 115.3381380985 69.2506831149 0 0 0
7753 1 139.6997666252 118.7631169991 70.1247735501 0 0 0
3681 3 135.9314095801 111.2968207967 72.9143144989 0 0 0
8830 1 136.5721328268 114.6756422552 71.220027431 0 0 0
10797 2 144.2409077313 117.9092643127 69.9096745939 0 0 0
1734 2 144.8007078108 113.6438364731 72.1542177659 0 0 0
3784 3 146.5192077823 115.4912395406 73.4906552485 0 0 0
16674 3 94.2676668658 123.7052843356 74.0627935497 0 0 0
1555 1 100.5525055892 123.8734138015 69.9322263936 0 0 0
7995 2 102.4215223158 126.295366789 70.9547400244 0 0 0
3638 2 97.9712039703 122.6737606079 71.0158503628 0 0 0
15229 2 101.7492623444 126.7447095295 67.3390158231 0 0 0
11290 1 101.0086368235 124.5662076059 72.1019002307 0 0 0
1211 2 99.4901332843 120.3584610147 72.6090188039 0 0 0
6567 2 99.0417975208 120.861104947 70.1331442902 0 0 0
1760 2 98.2802487987 118.9013750875 71.4075199096 0 0 0
1045 3 101.1314622627 121.6865650947 71.0671368233 0 0 0
3572 1 100.2824360708 116.2853232226 71.5033536894 0 0 0
5291 3 102.0908906879 122.2132125404 68.8408143113 0 0 0
2149 1 97.0794512199 120.8674651405 72.21096128 0 0 0
1724 2 95.5949876046 125.6028797832 74.5776026937 0 0 0
8937 1 96.3142261621 123.6989075868 72.7110942547 0 0 0
3793 2 109.3645885266 120.1651535497 65.6686584584 0 0 0
2779 1 102.6927956714 124.7082648073 68.6008625703 0 0 0
1189 2 102.9191081074 125.6299626376 73.3168963965 0 0 0
3282 2 106.2500169246 121.9393964477 66.4062545816 0 0 0
8185 1 100.9675640609 119.1382168239 70.7748496517 0 0 0
12394 3 105.6031352968 120.6731070012 69.1770663751 0 0 0
13547 3 102.8954157519 123.7236573764 70.9510547713 0 0 0
6866 3 106.5668452091 123.4740307984 68.0801622121 0 0 0
4077 1 104.2158976103 126.8709054806 66.5414989171 0 0 0
3526 2 106.6132380193 118.6023623457 67.849046157 0 0 0
15638 1 104.2466406022 123.054946747 68.9044558094 0 0 0
5419 3 103.7351736268 123.7848326161 66.5681726961 0 0 0
1073 3 104.7612899919 124.9778570617 71.2952834512 0 0 0
4649 3 109.6887241924 126.5049049819 70.6556504414 0 0 0
3761 2 103.7100318277 121.0377920959 67.2126474312 0 0 0
2156 1 108.8954672023 124.187961736 71.3823707217 0 0 0
17508 3 103.1976098219 120.8592220268 70.6045464644 0 0 0
3191 3 107.8474702323 122.5572304016 70.0933631075 0 0 0
2554 3 107.6136763202 125.3157159076 69.6460291709 0 0 0
1843 1 108.2869587048 121.6453940653 72.2435871021 0 0 0
2353 3 108.0793634279 120.9321783189 68.3644263307 0 0 0
418 2 109.9587444303 123.9634731138 69.1806859759 0 0 0
3249 1 109.8006304979 121.986701183 67.6843750484 0 0 0
10609 3 109.6442025568 121.0303075857 70.0194763941 0 0 0
6348 3 105.8824943669 124.809459192 66.345457807 0 0 0
10406 3 109.2273934819 119.6332693647 71.8645652926 0 0 0
2311 3 107.5214550421 119.1912021969 70.0935308081 0 0 0
15017 2 105.1686225863 125.3172603851 68.6084714711 0 0 0
1116 1 105.4293146535 127.0401355155 70.3909689194 0 0 0
1067 3 107.020458945 126.1639325822 71.9510509153 0 0 0
2004 1 105.4010752898 122.1572109182 71.1454487997 0 0 0
6300 2 111.0271534755 120.0248595184 68.1234931547 0 0 0
1968 1 109.1380959165 127.5909091518 68.1648746989 0 0 0
11903 2 106.0774955638 127.5208450997 68.2916653178 0 0 0
5209 3 107.4790369127 125.7134613064 67.3753596728 0 0 0
4392 2 110.0216497444 125.7074368639 67.4920335809 0 0 0
16181 3 112.5729382185 123.4626778269 64.9190872329 0 0 0
8380 3 111.8767270616 121.2681447284 66.3039883187 0 0 0
17595 1 111.5268415144 125.5422300959 65.635883171 0 0 0
5037 3 109.4466332799 126.3477612293 72.8179819757 0 0 0
14220 1 110.6038661752 121.8577463825 72.3922653042 0 0 0
954 2 113.5186711657 124.6554109737 67.1410389484 0 0 0
4907 3 112.2646089148 122.856610884 69.0417248887 0 0 0
11176 2 111.4314698325 118.7712919545 65.2668656675 0 0 0
1414 1 117.4884838197 119.8334513626 67.9514822815 0 0 0
3683 3 112.5877781627 118.5515256139 69.1243349148 0 0 0
1941 1 115.7221182784 118.1540689371 66.3131688682 0 0 0
1126 3 113.3412847531 120.8294878009 69.0536267777 0 0 0
14621 1 115.4965649014 120.0063590266 70.3065727036 0 0 0
1596 3 117.8590683939 119.5136911781 71.1199342349 0 0 0
12084 3 113.0971253099 118.9088716741 66.6594200827 0 0 0
4395 2 113.7909154334 124.4301668278 69.5148502963 0 0 0
3736 3 118.441615452 122.7403543947 64.8340694161 0 0 0
4094 1 114.6432258164 123.2760913582 63.8210543934 0 0 0
8170 1 111.7242210384 120.2203683735 70.8404041336 0 0 0
10195 1 113.4748468347 122.2833634246 70.9659089164 0 0 0
16481 2 116.1531135078 123.626925774 71.3658070954 0 0 0
4807 1 113.7189166179 125.1220525855 71.9480235143 0 0 0
3422 2 114.2337910818 122.5929508407 67.0900613969 0 0 0
11329 3 111.9003690425 126.446207681 71.8964185478 0 0 0
1124 2 111.6961780008 124.309313118 70.9548010235 0 0 0
15918 2 115.3485788829 120.6557462523 67.5536277763 0 0 0
6596 2 117.6831484817 124.3148304348 69.7820292048 0 0 0
8915 2 117.3710914158 121.8962760864 69.9594714418 0 0 0
9557 3 115.6596593219 125.6484594039 70.5489912602 0 0 0
2547 2 117.2524744179 122.6315461996 67.3901434416 0 0 0
7971 2 113.695262256 127.176580626 70.2514178363 0 0 0
8065 2 115.2737111356 122.5861343453 69.2119190318 0 0 0
1389 3 116.3022519878 122.3502556422 65.2033302584 0 0 0
6840 3 111.3032141951 123.7180047138 66.9289208115 0 0 0
5320 3 111.6738283092 126.0294082864 69.2481064864 0 0 0
1014 2 115.939178313 124.5866927184 68.303045654 0 0 0
2980 1 114.3647865364 120.6118735784 72.5451627234 0 0 0
13531 1 116.0059940775 124.4479845825 65.8046637258 0 0 0
2138 1 112.3333883071 123.3144298684 73.2120856989 0 0 0
15547 2 117.9977550119 124.1654605204 72.4706526356 0 0 0
15141 1 118.2352469399 126.3002807578 71.8512080806 0 0 0
16272 2 115.8359830058 125.7551254451 72.6948411429 0 0 0
3688 3 119.2534883318 121.2944334232 66.5695591889 0 0 0
9242 2 118.3066631907 118.1815326387 69.1813414448 0 0 0
2333 1 125.0941978459 119.7937683602 66.657495363 0 0 0
1973 2 122.6612581654 119.1198407497 68.3131054902 0 0 0
685 2 118.5856827027 121.6410026863 71.7828808289 0 0 0
432 2 127.0002986981 118.3870918671 64.8888387636 0 0 0
8449 2 121.3168526232 120.9992346585 72.1759478309 0 0 0
7355 2 122.9446479715 119.7071696862 65.5354822835 0 0 0
2934 3 119.9739577614 119.6394183672 67.9826950057 0 0 0
13546 2 119.7360624303 122.5360621063 68.7146820236 0 0 0
8974 2 119.7999445964 123.6045715447 66.6904764086 0 0 0
1275 2 126.2832107283 121.2572495073 65.0928143569 0 0 0
11314 1 120.6193855896 118.69351473 65.341208758 0 0 0
8385 2 121.5555189868 121.2415567941 67.5601839203 0 0 0
554 1 120.080976647 120.1759653762 70.1411545248 0 0 0
1601 1 121.2196491748 124.3924172383 69.3686080225 0 0 0
3461 3 125.4146978748 121.6733021915 70.4173704899 0 0 0
10470 3 117.9449797886 125.4925565677 67.6577729281 0 0 0
10433 1 124.0023194555 123.2473107134 68.8065161921 0 0 0
8335 3 122.244214407 123.4111485948 67.2784299395 0 0 0
8008 3 128.7413141329 121.6426178797 65.1568376161 0 0 0
16478 2 119.7414416713 123.7200926457 71.1596731102 0 0 0
6735 3 124.0305277334 120.8776657283 68.6823385447 0 0 0
4226 1 119.4079960805 125.8898306278 69.6311093422 0 0 0
4398 1 121.7676051697 122.2505124571 69.855473987 0 0 0
2881 3 124.8384454678 124.0558588775 66.8953518244 0 0 0
895 2 122.8926468433 126.0975154367 70.0907470852 0 0 0
12767 2 125.9426627049 123.9629292657 70.7747523419 0 0 0
14587 1 123.4476439846 123.9415822806 71.0057787014 0 0 0
2075 2 122.7284477893 120.2985173813 70.5433247123 0 0 0
11753 1 123.7079004249 121.8206633342 66.2935993302 0 0 0
1396 2 125.0340026656 125.6752776125 69.5282940882 0 0 0
2867 2 124.3976312032 126.6727231141 72.1459549626 0 0 0
5048 1 122.049442553 125.2889285994 72.2455216539 0 0 0
6463 2 122.2443810103 125.4319496661 65.7725206136 0 0 0
8417 1 120.9846200129 127.7933127856 69.3585579024 0 0 0
2740 1 120.9583710175 127.416340514 71.4802810379 0 0 0
16539 1 122.179975615 123.1245702143 73.1028359838 0 0 0
2271 2 129.614043337 119.6349311311 64.2866866753 0 0 0
7050 3 130.478973563 117.3826713447 64.7395373404 0 0 0
6213 1 126.1190791402 122.0016661396 67.7661148117 0 0 0
9986 1 126.7727362677 124.125890927 68.4679426916 0 0 0
2274 3 126.1115415741 126.3626069094 66.7300193001 0 0 0
3632 2 127.3315940372 126.2898368842 68.8491590105 0 0 0
14575 2 127.3687525445 120.2228398701 71.2892368296 0 0 0
2352 2 130.7275347524 120.8278387201 67.0037679229 0 0 0
15366 1 127.5651462733 123.4168912142 66.138982661 0 0 0
9238 2 128.7431480925 122.0019312557 67.5654760338 0 0 0
2728 2 129.4866860143 128.2523202389 65.9405406237 0 0 0
7957 1 133.0983554885 120.7056321532 67.6981148114 0 0 0
13328 1 128.2977554261 124.5289521955 70.4638405698 0 0 0
2879 2 132.3319448368 123.0353899908 67.9038736516 0 0 0
1428 2 128.9724866906 124.3012417849 68.1467320024 0 0 0
10889 3 133.4232435843 124.8927339117 69.717529224 0 0 0
4310 1 128.5834048237 126.0435604143 66.4463573821 0 0 0
485 1 130.956085327 125.5665463719 67.6128837762 0 0 0
5739 1 130.8329296179 121.6767019971 69.344452382 0 0 0
8582 2 127.3735500337 121.9122859593 69.5114180442 0 0 0
17341 3 130.9785814021 124.3518978063 69.5564900602 0 0 0
2032 3 134.3318558287 122.7453632756 68.9493923401 0 0 0
372 2 129.4259260314 126.5162909213 70.0093971712 0 0 0
4984 1 133.3111909923 125.2090838147 67.14603305 0 0 0
6385 3 130.1927733625 123.3551034877 66.2501104247 0 0 0
1841 2 131.2544816315 125.2642249989 71.7934978498 0 0 0
13755 1 133.5765585628 120.7423215638 70.1786206477 0 0 0
10404 3 129.2206116347 123.4550271271 72.3989619495 0 0 0
13879 2 130.8138271266 121.8133700518 64.485064852 0 0 0
3662 3 126.7982956517 126.0912342049 71.1604484776 0 0 0
10416 1 132.662833686 128.0304582958 67.8528528167 0 0 0
5254 1 128.5360977274 120.797157899 73.6533908608 0 0 0
2775 2 136.1452331606 124.9238935965 69.3960684293 0 0 0
6808 1 136.8703864229 122.5595588618 69.453665107 0 0 0
7033 2 135.3489838991 123.8139024955 67.0188110987 0 0 0
9723 1 135.35398428 121.5585783842 71.357196721 0 0 0
1730 1 140.6517123628 116.7629150858 71.8638980593 0 0 0
2874 2 135.1713829867 123.9614319993 71.5626689801 0 0 0
7473 2 136.1986721971 116.9746135177 67.2234353088 0 0 0
4552 3 135.7768892361 119.3402053964 70.858459513 0 0 0
7120 3 138.7140909244 124.4242426672 69.236465965 0 0 0
578 2 135.7368667653 120.5841794411 68.7253930668 0 0 0
4815 3 141.8102565089 119.4849345484 68.525865157 0 0 0
4576 2 137.3822381735 119.2594315477 67.383360365 0 0 0
11061 2 140.2696689268 120.7033332574 71.4789569013 0 0 0
5529 2 137.6339427473 124.0565032503 71.5864483798 0 0 0
1792 2 138.0163017982 120.3043472025 69.6420173743 0 0 0
1260 2 138.0596316085 121.405160917 72.1417514447 0 0 0
726 2 139.0847954985 119.0377389149 72.5673930039 0 0 0
3135 2 137.4613531778 125.6096104946 67.4366118453 0 0 0
9849 2 142.2380263324 123.5701527709 68.5749787516 0 0 0
1931 3 139.4117840542 122.4590831001 70.1770200208 0 0 0
452 3 143.1585465245 125.3694238362 69.9653170916 0 0 0
15906 2 141.105819081 123.9850403064 70.6559534825 0 0 0
15028 3 141.8175950316 121.7819777979 69.9274785781 0 0 0
4534 2 136.1651926792 126.3988310268 71.2898442026 0 0 0
4773 2 143.6080217657 126.8215325348 72.86733626 0 0 0
15443 2 140.9539058259 122.8726271281 72.6401857034 0 0 0
8827 2 145.9101203407 121.7483378048 69.5363770531 0 0 0
13924 3 146.7883198757 123.4001541189 71.0920537671 0 0 0
13610 3 143.926616973 121.5478353571 68.6359303385 0 0 0
5808 3 145.2253828764 121.813072904 71.9474964277 0 0 0
1906 2 100.3183435627 126.1484245502 69.7025698833 0 0 0
7332 1 100.9599277912 132.7970368432 72.1994417396 0 0 0
8853 2 100.2261172649 130.4279128263 70.1435274518 0 0 0
1958 1 98.853883527 132.0723054279 74.1187849805 0 0 0
5191 1 99.4582367601 128.2419663554 70.9007105803 0 0 0
304 1 101.4613397335 128.3789959933 69.3260417218 0 0 0
5740 1 96.5849402633 126.1441886256 72.5520351761 0 0 0
5946 3 100.0174417553 129.8244150752 72.7791850818 0 0 0
6057 1 102.2759866302 128.6973405861 71.3787764631 0 0 0
2976 2 97.2401032693 136.6720920256 71.5225552634 0 0 0
3788 2 97.9628371092 134.3200396712 71.835741266 0 0 0
879 3 101.6368247778 134.6934317267 70.7450417191 0 0 0
8551 3 110.3811351295 129.8171322513 64.1977798156 0 0 0
3433 2 108.8255318897 133.1493838974 65.9233653703 0 0 0
11286 3 109.3073860187 128.88982923 71.7535951968 0 0 0
17524 2 102.773289281 129.6308509707 67.6009271102 0 0 0
10072 2 104.6145027003 130.0050633921 71.9784381781 0 0 0
11922 3 107.8800347298 128.887834143 66.1681543332 0 0 0
11801 2 104.2185875872 131.4696282594 67.9158548776 0 0 0
7622 2 102.8863790325 130.5136288246 70.0396070525 0 0 0
17699 2 106.1672345915 127.2999526909 65.8509373797 0 0 0
5288 2 107.6041902899 128.041883765 70.3571483351 0 0 0
6313 2 108.0947988269 134.4938807077 68.2789350163 0 0 0
4803 1 107.6242629493 132.3557039632 69.7812857985 0 0 0
3649 3 105.3943849925 131.5602419867 69.9508274315 0 0 0
3961 1 107.0981793636 130.3169635956 71.0806730036 0 0 0
6595 3 110.0408858174 132.4296831187 69.918771969 0 0 0
5700 1 108.5756347129 136.5530830824 69.4499265278 0 0 0
13457 2 107.1711672475 129.8852828012 68.6565715984 0 0 0
9179 2 110.0839729954 131.229218354 72.769104237 0 0 0
7901 1 105.4447584521 133.9081311206 69.3957403869 0 0 0
3920 3 105.6186157296 132.7187926266 71.6558647909 0 0 0
4175 2 103.5122818202 127.3135885844 68.704366284 0 0 0
1874 2 105.1061010614 129.3886017864 69.4203431009 0 0 0
14123 2 105.5163934847 129.7284699974 66.5863945395 0 0 0
11778 1 103.3022477452 132.7184980405 70.7080413516 0 0 0
232 3 106.7001060515 132.2435161949 67.5814198085 0 0 0
6331 1 108.022226166 132.6464161866 72.4632416366 0 0 0
2076 2 109.4378543307 135.5792164841 66.461656211 0 0 0
621 3 109.3122311897 130.2717063898 69.991977966 0 0 0
285 3 109.8108265859 129.9956200601 67.417847737 0 0 0
10692 3 110.296492519 134.8282650475 70.518785446 0 0 0
15085 1 103.5210806043 132.3285004399 73.5062394891 0 0 0
3393 2 111.2982699628 133.3115277911 71.8578772843 0 0 0
12581 2 111.9158516571 129.486175951 66.3533969756 0 0 0
6218 3 112.4164760379 127.2544363191 67.2612992639 0 0 0
5930 2 113.7728743328 129.0329815969 68.9297694604 0 0 0