# LAMMPS data file written by OVITO Basic 3.11.2

40000 atoms
2 atom types

-0.0322062552 126.8254437654 xlo xhi
-23.7503564017 55.4003563946 ylo yhi
-0.0128563981 158.2885691944 zlo zhi

Atom Type Labels

1 W
2 Mo

Masses

1 183.85  # W
2 95.94  # Mo

Atoms  # atomic

203 2 3.06589 0.187217 3.30903
201 2 126.8638931606 0.0537659 3.3797
211 2 15.8398 0.0861301 2.96984
2 2 1.65862 1.6387 1.47713
223 1 3.0811 3.24303 3.1542
1519 2 28.5765 15.7756 22.0728
4 1 4.74837 1.68905 1.56722
225 1 6.28825 3.32064 3.13737
25 2 6.27973 3.27088 0.0147635
6 2 7.82984 1.72857 1.69431
8 2 10.992 1.52827 1.67153
227 2 9.51265 3.275 3.1653
7 1 9.39885 0.227107 158.4804255926
10 1 14.1305 1.48323 1.50231
229 2 12.5884 3.27116 3.11572
231 1 15.6929 3.1179 3.11358
29 1 12.6266 3.25198 -0.0112211
13 1 19.0166 0.0490487 158.4810175926
213 1 18.8926 0.0972074 3.18585
12 2 17.3984 1.7033 1.63362
233 2 18.9061 3.14771 3.26858
33 1 19.032 3.11017 158.4312205926
15 1 22.0087 0.0583907 0.137527
14 2 20.5862 1.57474 1.78185
235 1 22.0926 3.21822 3.17838
16 1 23.8084 1.54337 1.60828
18 2 26.9447 1.44757 1.67821
237 1 25.3516 3.21648 3.14638
219 2 28.7841 -0.0861938 3.21275
20 2 30.0368 1.5506 1.51345
239 1 28.5148 3.05565 3.13782
1315 1 22.1687 15.8117 19.0553
1461 1 -0.0226500206 9.44243 22.1236
22 1 1.5609 4.80473 1.53161
243 1 3.04438 6.39427 3.05339
42 2 1.54195 7.95806 1.55029
24 1 4.70609 4.79304 1.59991
245 1 6.32691 6.42684 3.206
44 1 4.69689 8.04964 1.54927
26 2 7.79127 4.85185 1.57943
28 2 11.0303 4.86456 1.63971
247 1 9.50586 6.47304 3.14107
46 1 8.02208 7.98823 1.53167
48 1 11.0804 7.95359 1.55234
30 1 14.2571 4.72534 1.5224
249 2 12.5931 6.40648 3.17853
251 2 15.8354 6.42921 3.11661
32 2 17.3842 4.76545 1.59212
253 1 19.0326 6.37295 3.10665
1513 2 19.0695 15.7113 22.0842
1309 1 12.5956 15.7737 18.8556
34 2 20.5884 4.73053 1.56688
255 2 22.2029 6.36287 3.07458
36 1 23.7903 4.711 1.59718
38 1 26.9276 4.7131 1.60931
257 1 25.2898 6.32855 3.02189
58 2 26.9198 7.93643 1.51776
40 1 30.0647 4.72898 1.54827
259 1 28.5491 6.25812 3.15078
60 1 30.0672 7.92391 1.48122
1307 2 9.46999 15.7601 18.9203
5041 1 31.5961 6.33285 158.2901102926
62 1 1.54689 11.0338 1.51175
263 1 3.13163 9.55248 3.11639
1303 1 3.13333 15.7542 18.9836
261 2 0.0462631 9.45665 3.10137
64 2 4.71092 11.1662 1.5284
265 2 6.38828 9.50682 3.2011
1115 2 22.0862 15.8085 15.847
66 2 7.90887 11.1669 1.56384
68 2 11.106 11.094 1.52663
267 1 9.49873 9.48068 3.1235
1109 1 12.7414 15.782 15.7492
50 1 14.2632 7.92958 1.48506
70 2 14.2048 11.1431 1.53586
269 1 12.7136 9.5246 3.06651
52 2 17.4083 7.89478 1.47905
271 2 15.8364 9.57832 3.138
72 1 17.4559 11.1169 1.52685
273 1 19.015 9.47802 3.06977
1107 1 9.47862 15.6802 15.7286
54 1 20.6289 7.95322 1.58929
74 2 20.5921 11.0898 1.56248
275 2 22.1947 9.59306 3.08822
56 1 23.7785 7.9715 1.50863
76 1 23.7503 11.2451 1.52382
78 2 26.9924 11.0706 1.61588
277 2 25.4147 9.49972 3.02714
80 1 30.1052 11.0475 1.53412
279 1 28.5413 9.50673 3.15116
82 2 1.55795 14.2729 1.5225
283 1 3.0932 12.7219 3.0637
5901 1 31.6608 15.792 12.6396
1221 2 126.887 3.16199 18.9393
1081 2 0.0383499794 12.6544 15.8178
1499 1 28.5659 12.7254 22.1438
84 2 4.64803 14.2749 1.46219
285 1 6.31032 12.6996 3.06204
1101 2 -6.5002064468e-04 15.7863 15.8457
86 1 7.91958 14.353 1.50222
88 1 11.0067 14.1709 1.53674
287 2 9.46399 12.7011 3.2336
307 2 9.45012 15.7995 3.09877
1021 1 126.936 3.12394 15.8635
90 1 14.2199 14.3273 1.53305
289 2 12.6359 12.671 3.17773
913 1 18.9851 15.7718 12.6733
309 2 12.613 15.7681 3.18659
109 1 12.6469 15.8151 -0.0107676
291 2 15.7993 12.7804 3.05828
92 1 17.4608 14.3192 1.55462
293 2 18.9113 12.649 3.10637
681 2 -0.0246500206 12.7978 9.50192
711 2 15.7876 15.8001 9.44727
94 2 20.6868 14.2962 1.51889
295 2 22.1773 12.6384 3.15262
96 1 23.7964 14.3002 1.46235
98 1 27.0475 14.2414 1.42543
297 2 25.3919 12.6737 3.09464
601 1 0.0143499794 0.0485328 9.3676
703 1 3.12535 15.8248 9.41423
100 2 30.1416 14.2383 1.60873
299 2 28.4798 12.6749 3.10147
1300 1 30.046 14.3045 20.4672
481 2 0.0083499794 12.7264 6.28186
6281 1 31.6427 12.6224 18.9357
1299 2 28.4594 12.6643 18.9142
405 1 6.19267 0.186363 6.32693
403 1 3.0838 0.157215 6.33592
401 1 0.106306 0.222572 6.35576
202 2 1.62229 1.74593 4.82618
423 1 3.0995 3.33292 6.41899
204 1 4.66231 1.84227 4.80904
425 2 6.30458 3.32052 6.32476
206 2 7.8088 1.67035 4.69493
208 1 11.0343 1.64925 4.69979
427 2 9.381 3.29998 6.34706
429 1 12.6089 3.28825 6.3182
210 2 14.1087 1.62952 4.69113
431 1 15.8028 3.26429 6.31273
212 2 17.3559 1.66245 4.85715
433 1 18.9191 3.29052 6.3983
214 2 20.5618 1.63662 4.92048
435 2 22.1743 3.25071 6.35816
216 1 23.7125 1.5932 4.64253
417 2 25.361 0.0651089 6.22428
218 1 26.9974 1.50419 4.79937
437 2 25.3375 3.0447 6.2474
220 1 30.106 1.64509 4.78668
439 1 28.4659 3.1108 6.33592
5421 2 31.6402 3.08061 6.34293
441 1 -0.0136265 6.42321 6.34762
222 1 1.54029 4.80101 4.74137
443 1 3.23036 6.4869 6.29287
242 2 1.54128 7.92683 4.70441
224 1 4.73265 4.81022 4.68089
445 2 6.34832 6.39611 6.35001
244 1 4.76469 7.95781 4.72137
226 1 7.93926 4.84864 4.71657
246 2 7.9428 7.966 4.72527
447 1 9.47409 6.47092 6.31346
228 2 11.0171 4.88562 4.73769
248 1 11.1338 8.0195 4.78266
449 1 12.6816 6.3803 6.26125
230 2 14.2171 4.84292 4.73477
451 2 15.9106 6.40282 6.21661
232 2 17.4101 4.77398 4.76081
453 1 18.9723 6.36353 6.36026
234 1 20.5541 4.80755 4.70097
455 2 22.1937 6.3181 6.32593
254 2 20.5111 7.9059 4.72776
256 1 23.6652 7.94502 4.76286
236 1 23.7677 4.7131 4.64152
238 2 26.8913 4.72605 4.70864
457 1 25.3379 6.26513 6.19041
258 1 26.9732 7.79408 4.69348
240 1 30.104 4.63084 4.79171
459 2 28.5371 6.31964 6.32345
1319 2 28.4571 15.8068 18.9403
260 2 30.0827 7.83592 4.62945
262 1 1.53877 11.123 4.72941
463 1 3.14255 9.56644 6.36693
264 2 4.74519 11.1861 4.61419
465 1 6.2898 9.45803 6.37899
266 2 7.99134 11.0679 4.66965
467 1 9.50557 9.4483 6.28952
268 2 11.0385 11.1318 4.71456
250 1 14.2231 7.99878 4.69426
270 1 14.2337 11.1092 4.68812
469 2 12.7348 9.54245 6.34327
252 1 17.3951 7.98665 4.64947
471 2 15.8571 9.56161 6.24611
473 2 19.0044 9.50397 6.28713
272 1 17.4018 11.1077 4.61647
475 1 22.1519 9.45296 6.29088
274 1 20.6488 11.1269 4.68568
276 2 23.8321 11.0863 4.65054
278 1 26.9388 11.0813 4.65821
477 1 25.4038 9.41259 6.19302
479 2 28.5232 9.39021 6.32286
280 2 30.188 11.0115 4.69983
421 2 -0.0286500206 3.26121 6.39911
41 1 126.835 6.34092 158.3105538026
282 2 1.59186 14.3687 4.67101
483 1 3.16089 12.6948 6.2323
284 1 4.74741 14.2949 4.7072
485 1 6.35319 12.6644 6.27411
241 2 -0.0016500206 6.29534 3.14586
286 1 7.91534 14.2163 4.74149
1281 1 -0.0316500206 12.7004 18.9649
288 1 11.079 14.2752 4.74036
487 1 9.52703 12.756 6.36148
489 1 12.6416 12.7137 6.32158
290 2 14.182 14.195 4.75832
491 2 15.8466 12.7402 6.24817
292 2 17.3807 14.3645 4.62681
493 2 19.0081 12.6853 6.17866
515 1 22.2254 15.7814 6.33008
294 1 20.5514 14.363 4.72274
495 1 22.2146 12.6948 6.27602
517 2 25.4206 15.7326 6.24781
296 2 23.7797 14.231 4.71085
497 1 25.3773 12.632 6.28994
298 1 26.9193 14.2484 4.60608
499 1 28.5298 12.5604 6.21895
300 2 30.126 14.1044 4.67163
5481 2 31.5501 12.6487 6.31764
603 2 3.10838 0.0908183 9.33044
402 1 1.54872 1.79114 7.97144
623 1 3.14853 3.30599 9.59121
602 1 1.54273 1.58229 11.0747
404 1 4.71793 1.76424 7.93929
625 1 6.34711 3.20914 9.52214
604 2 4.69898 1.7082 11.1345
406 1 7.94221 1.67901 7.83079
606 2 7.9969 1.70892 10.9593
408 1 11.011 1.693 7.7602
627 1 9.45384 3.32017 9.43957
608 1 11.0636 1.71976 11.0094
410 1 14.1565 1.66434 7.8177
629 2 12.6564 3.23318 9.45554
631 2 15.8499 3.20208 9.44623
610 2 14.2015 1.6763 11.04
611 2 15.9509 0.126675 9.54136
412 1 17.386 1.71888 7.87349
633 1 18.9635 3.24204 9.57642
612 2 17.6155 1.58574 11.1374
615 1 22.2029 0.0276125 9.5186
414 1 20.5574 1.64514 7.8665
635 2 22.2224 3.06759 9.4197
614 1 20.6479 1.60655 11.0414
416 1 23.8137 1.44706 7.8908
616 2 23.868 1.52497 11.1493
418 2 27.0557 1.48441 7.94747
637 2 25.4294 3.09174 9.47697
618 2 27.1032 1.4599 10.9467
420 2 30.1677 1.49279 7.9859
639 2 28.5409 3.11235 9.40421
620 2 30.1577 1.60185 11.1024
1497 2 25.4584 12.6538 22.0744
422 2 1.62602 4.92023 7.9121
643 2 3.19267 6.49573 9.48452
622 1 1.4133 4.74775 11.0625
642 2 1.56317 7.88476 11.12
442 2 1.40821 7.98449 7.9561
1298 1 26.9207 14.1684 20.5155
424 1 4.7302 4.89391 7.9921
645 1 6.32398 6.45006 9.46826
624 1 4.77449 4.8319 11.1453
644 1 4.78503 7.99408 11.138
426 1 7.92676 4.89904 7.8611
646 2 7.99744 7.93754 11.0106
444 1 4.73028 7.98828 7.9036
626 2 7.87875 4.85009 11.0112
428 1 11.0862 4.84306 7.83998
647 1 9.55953 6.32968 9.51178
628 2 11.1015 4.80211 11.0806
648 1 11.1201 7.93733 11.1995
446 1 7.91505 7.99142 7.91072
448 1 11.1792 7.93784 7.91253
430 1 14.2854 4.8915 7.87178
649 2 12.6483 6.3007 9.43353
630 2 14.2819 4.77946 11.0693
651 1 15.7937 6.38481 9.46994
450 1 14.2589 8.07083 7.84681
432 1 17.4306 4.80503 7.98318
653 2 18.9637 6.45801 9.38015
632 1 17.3878 4.8162 11.0282
452 2 17.3846 7.92735 7.85558
655 1 22.2265 6.32549 9.38067
434 2 20.6194 4.75838 7.90921
634 1 20.6437 4.82039 11.0027
654 2 20.5002 7.96406 11.0124
636 1 23.7161 4.71473 11.0175
436 2 23.852 4.64344 7.83315
438 2 27.0164 4.63265 7.8165
657 1 25.3089 6.26534 9.49177
638 2 27.0132 4.62726 11.0564
658 2 26.9989 7.73109 11.0991
1297 1 25.3666 12.656 18.9631
440 1 30.0763 4.65371 7.91078
659 1 28.4458 6.28178 9.43884
640 2 30.2475 4.75677 11.0278
660 1 30.1261 7.9442 10.9687
460 1 30.1064 7.85056 7.81017
462 2 1.56708 11.0499 7.82368
663 2 3.13944 9.57428 9.41649
662 2 1.54975 11.028 11.0269
464 1 4.71344 11.1303 7.89321
665 1 6.31218 9.63429 9.47534
664 1 4.67329 11.1748 11.0222
466 2 7.99216 11.1399 7.85003
666 1 7.91107 11.1664 11.0477
468 2 11.0876 11.1361 7.91765
667 2 9.57539 9.52674 9.48814
668 2 11.0834 11.1574 10.9817
650 2 14.2521 7.94191 11.0168
470 1 14.2446 11.1599 7.88901
669 1 12.6785 9.49072 9.45629
670 1 14.2674 11.1078 11.0026
671 1 15.8636 9.56273 9.41388
652 1 17.3597 7.94031 10.9412
472 1 17.3898 11.1379 7.8096
673 2 18.9209 9.56997 9.42602
672 2 17.3756 11.1402 11.0415
454 2 20.5681 7.87959 7.90924
656 1 23.6886 7.81982 11.0911
474 2 20.5973 11.0649 7.79296
675 2 22.1534 9.51701 9.46127
674 2 20.5784 11.1517 11.015
456 2 23.7904 7.94279 7.90517
458 1 26.8599 7.82855 7.80862
476 1 23.8327 11.0019 7.76163
676 2 23.7206 11.0174 11.0206
478 2 27.0028 10.9313 7.8874
677 2 25.3685 9.49473 9.45015
678 2 26.8947 11.0186 10.9507
480 2 30.1411 11.069 7.85686
679 1 28.5715 9.43604 9.43436
680 1 30.066 11.1286 11.0832
1517 2 25.4002 15.7413 22.1096
683 2 3.16076 12.6779 9.38769
482 1 1.55516 14.279 7.85255
682 2 1.5261 14.3667 11.0604
221 2 0.0033499794 3.19602 3.16523
484 1 4.76199 14.2734 7.85791
685 2 6.26732 12.6807 9.504
684 2 4.70219 14.4169 11.0514
486 2 7.92304 14.2514 7.88612
686 2 7.86581 14.2671 11.0595
6461 1 31.6692 9.44701 22.0554
488 1 11.1034 14.3072 7.86404
687 2 9.49385 12.6689 9.49308
688 2 10.9986 14.3039 11.0672
6401 1 31.6532 -0.0218235 22.1178
490 1 14.2375 14.2616 7.87866
689 1 12.5737 12.7885 9.46375
690 1 14.225 14.2314 11.0464
691 1 15.8515 12.7629 9.41365
693 2 19.0352 12.7039 9.40095
492 1 17.3977 14.2952 7.84903
692 1 17.4397 14.3064 11.0377
5241 2 31.6605 6.17375 3.18792
695 1 22.1756 12.5884 9.44589
494 1 20.6088 14.239 7.90303
694 1 20.5998 14.2616 11.0899
696 2 23.8412 14.3214 11.1385
496 1 23.7897 14.2038 7.90149
697 2 25.4118 12.6034 9.3929
498 1 26.9396 14.1965 7.78896
698 1 27.026 14.3078 11.0548
717 1 25.3971 15.7461 9.42004
1295 1 22.1531 12.6891 18.9728
500 2 30.0532 14.1756 7.8844
699 1 28.4585 12.6397 9.39648
700 2 30.1135 14.1663 10.8827
5801 2 31.5826 -0.102119 12.4109
802 2 1.68493 1.59282 14.1972
823 2 3.15081 3.37094 12.7127
1294 1 20.5677 14.1852 20.5161
825 1 6.33255 3.26355 12.6911
804 1 4.76332 1.67586 14.1942
806 2 7.88526 1.59672 14.0841
827 1 9.47367 3.19895 12.6931
808 1 11.0497 1.63058 14.2371
829 1 12.6176 3.08732 12.6388
810 1 14.2096 1.53336 14.1777
831 1 15.7758 3.20785 12.6391
812 1 17.4255 1.57063 14.1653
833 1 19.011 3.30651 12.544
835 1 22.2234 3.12822 12.6135
814 2 20.5291 1.60266 14.1024
816 1 23.8325 1.63448 14.242
817 1 25.4223 0.0156552 12.678
837 2 25.3457 3.12725 12.6331
818 1 26.9427 1.57115 14.2164
819 1 28.6057 0.0461139 12.7432
839 2 28.5937 3.149 12.6277
820 2 30.1728 1.56183 14.1853
1495 2 22.2127 12.6301 22.1402
1296 2 23.7632 14.2128 20.5054
843 2 3.11673 6.41121 12.6098
822 1 1.49997 4.79853 14.1969
845 2 6.30536 6.42508 12.6607
824 2 4.69238 4.80852 14.3421
844 1 4.78234 7.98505 14.2622
826 1 7.88469 4.88644 14.133
847 2 9.4831 6.34049 12.6286
828 1 11.0302 4.73627 14.1447
849 1 12.6959 6.28358 12.6712
830 1 14.2536 4.71814 14.1615
851 2 15.8928 6.3691 12.5497
832 1 17.5341 4.76364 14.1918
853 1 18.9769 6.43488 12.5535
852 1 17.5131 7.94158 14.2092
834 1 20.6477 4.80877 14.1793
855 2 22.2536 6.30318 12.6364
854 2 20.6277 7.85588 14.1916
856 1 23.7558 7.89932 14.1732
836 2 23.7713 4.74777 14.2457
838 2 26.9456 4.81162 14.1992
857 1 25.3859 6.25158 12.5945
859 1 28.6714 6.31417 12.6266
840 2 30.1899 4.63475 14.2529
860 2 30.1243 7.90264 14.2234
1491 1 15.8548 12.6252 22.1304
842 2 1.45741 7.98666 14.1824
863 1 3.2309 9.47712 12.6843
862 2 1.51 11.1046 14.1607
846 2 7.87338 8.10855 14.1524
865 2 6.32784 9.64707 12.6121
864 2 4.64631 11.0782 14.2081
866 1 7.93311 11.0918 14.2462
848 1 11.1193 7.97308 14.1995
867 1 9.51628 9.55105 12.5691
868 2 11.1032 11.0973 14.1973
850 1 14.4356 7.80288 14.1739
869 2 12.7482 9.53576 12.5982
870 1 14.2797 11.1084 14.2452
871 2 15.8658 9.45901 12.6555
873 2 18.9673 9.55653 12.6373
872 2 17.4574 11.1172 14.3187
875 2 22.2082 9.44048 12.5639
874 1 20.6091 11.0892 14.2135
876 2 23.6229 11.0427 14.1601
858 2 27.0197 7.82605 14.1843
877 2 25.397 9.45116 12.6072
878 2 26.9859 11.0517 14.0903
879 1 28.4957 9.40156 12.5892
880 2 30.0195 11.0586 14.2339
1291 2 15.8357 12.7065 19.0067
1293 1 19.011 12.6942 18.975
883 1 3.15011 12.7466 12.5648
882 1 1.57067 14.283 14.1623
885 2 6.2872 12.723 12.5818
884 1 4.6737 14.246 14.234
1287 2 9.49899 12.7015 19.0088
886 2 7.90099 14.2404 14.1995
1288 1 11.0863 14.2195 20.4873
887 1 9.45388 12.6901 12.6154
888 1 11.0907 14.2926 14.2004
911 1 15.769 15.7933 12.5688
909 2 12.6339 15.7522 12.5923
889 1 12.7172 12.6936 12.5913
890 2 14.2654 14.3033 14.1734
891 2 15.8644 12.6304 12.6674
893 1 18.9937 12.6464 12.64
892 2 17.4132 14.1976 14.2124
895 1 22.1787 12.6359 12.5968
894 1 20.6693 14.2718 14.1582
896 2 23.7453 14.2084 14.2301
1485 2 6.35567 12.6962 22.0831
897 1 25.3357 12.6012 12.5804
898 1 26.9412 14.1723 14.188
1284 2 4.78891 14.2563 20.5298
899 1 28.5088 12.6446 12.6242
900 1 30.0206 14.252 14.2402
5881 2 31.6189 12.6113 12.6097
1002 2 1.55701 1.45759 17.3179
1023 1 3.18398 3.20382 15.8358
1004 2 4.5695 1.47617 17.316
1025 2 6.40351 3.16723 15.7275
1205 1 6.20485 0.168921 18.9941
1006 2 7.93473 1.47386 17.4093
1027 2 9.49964 3.18412 15.8615
1008 1 11.0732 1.54507 17.4367
1029 2 12.6232 3.21516 15.7682
1010 2 14.1916 1.57587 17.4617
1031 2 15.7946 3.01907 15.71
1011 2 15.7864 0.0448137 15.887
1012 2 18.8523 0.129389 15.8945
1211 1 17.3112 1.672 17.4919
1033 2 18.9394 3.17282 15.7892
1014 1 20.6557 1.62295 17.2996
1035 2 22.1915 3.12584 15.7841
1016 1 23.8449 1.55073 17.4806
1018 1 26.9915 1.59441 17.3233
1037 2 25.4068 3.19641 15.7748
1019 1 28.6964 -0.0256174 15.7424
1039 1 28.5621 3.10945 15.8029
1020 1 30.0585 1.50512 17.4138
1493 2 19.0263 12.5924 22.0749
1043 2 3.0779 6.40821 15.7661
1022 2 1.69947 4.82808 17.4043
1045 2 6.28806 6.38061 15.8014
1024 2 4.73411 4.73411 17.4417
1044 1 4.74533 7.95703 17.4182
1026 1 7.85547 4.68841 17.2923
1047 2 9.48518 6.35961 15.7
1028 1 11.1087 4.73435 17.363
1030 1 14.2338 4.81099 17.2221
1049 2 12.6013 6.33983 15.7266
1051 2 15.9014 6.27529 15.762
1050 2 14.2721 7.87654 17.4121
1053 2 19.0164 6.33707 15.7717
1032 2 17.4575 4.75693 17.4037
1034 1 20.6493 4.70076 17.3944
1055 1 22.2297 6.31068 15.8291
1036 1 23.8525 4.74664 17.3657
1056 2 23.739 7.8613 17.4059
1057 2 25.3582 6.30318 15.8058
1038 2 26.9932 4.69181 17.3605
1058 1 26.9038 7.90099 17.5358
1059 2 28.4914 6.31793 15.8038
1040 1 30.1439 4.7928 17.36
1060 1 30.1068 7.974 17.4117
1292 2 17.4024 14.2411 20.5549
1061 2 126.8388886206 9.51576 15.8393
1042 2 1.63788 7.889 17.4608
1063 1 3.1373 9.49873 15.8172
1062 2 1.63329 11.0461 17.3866
1064 2 4.79278 11.078 17.4967
1065 2 6.27229 9.55783 15.7911
1066 2 7.87342 11.0343 17.3889
1048 1 11.0474 7.92126 17.3787
1046 1 7.85934 7.98553 17.3499
1067 1 9.50145 9.50658 15.7313
1068 2 11.1581 11.0715 17.3547
1069 1 12.7454 9.51984 15.7657
1070 1 14.2917 11.0828 17.3378
1052 1 17.3583 7.91955 17.4068
1071 2 15.9081 9.43319 15.8199
1073 1 18.9562 9.44426 15.8675
1072 2 17.4412 11.1116 17.3645
1054 1 20.5973 7.94547 17.3558
1075 2 22.1862 9.47001 15.8892
1074 2 20.667 11.0817 17.447
1076 2 23.7376 11.039 17.4133
1077 2 25.3701 9.41762 15.692
1078 2 26.9688 11.0438 17.3789
1079 1 28.4771 9.47107 15.798
1080 2 30.0557 11.031 17.3348
1285 1 6.41828 12.6641 19.005
1083 2 3.1376 12.6137 15.76
1082 2 1.58511 14.2438 17.4493
1085 2 6.34568 12.6693 15.7499
1084 2 4.75476 14.1441 17.4038
1086 2 7.93301 14.2072 17.3611
1105 1 6.33595 15.7469 15.8921
1087 1 9.5137 12.7399 15.767
1088 1 11.0678 14.2397 17.3006
1090 1 14.2768 14.2292 17.3962
1089 1 12.7056 12.7419 15.7904
1113 2 19.0209 15.7857 15.8306
1091 1 15.7722 12.6696 15.8288
1092 1 17.4273 14.2062 17.3678
1093 2 19.0324 12.6324 15.8208
1095 1 22.1556 12.7009 15.7562
1094 1 20.567 14.2123 17.4042
1096 2 23.6926 14.2101 17.3498
1097 2 25.3177 12.5844 15.6806
1098 2 26.8883 14.294 17.4066
1099 2 28.4209 12.674 15.8025
1100 2 30.1303 14.2947 17.4266
1119 1 28.4771 15.8249 15.8751
1505 2 6.34333 15.7956 22.2019
6081 2 31.6287 12.6099 15.8147
1215 1 22.0973 -0.00593704 19.3113
1415 2 22.1663 0.00169148 22.1399
1419 2 28.513 0.0832934 22.2479
1290 1 14.222 14.2879 20.5514
1201 1 0.118407 0.0759497 19.0292
1403 2 2.93953 -0.0964177 22.3006
1223 1 3.12675 3.10612 18.9477
1202 2 1.47579 1.65317 20.5861
1423 2 3.07476 3.2492 22.0878
1225 2 6.35077 3.24433 18.9213
1425 1 6.39811 3.2103 22.1818
1204 2 4.70894 1.56849 20.5691
1206 2 7.90607 1.58418 20.6066
1227 2 9.55872 3.29314 18.9546
1427 1 9.67236 3.17073 22.2103
1208 2 10.9949 1.59164 20.589
1229 2 12.6797 3.21778 18.8806
1429 1 12.6507 3.17641 22.0739
1210 2 14.2448 1.68345 20.5959
1231 2 15.8155 3.22673 18.9921
1431 2 15.8328 3.17687 22.1483
1213 1 19.0998 0.127237 18.8272
1233 2 18.943 3.09197 19.0474
1433 1 19.0223 3.28274 22.1968
1212 1 17.3777 1.64794 20.5979
1235 2 22.3099 3.09465 19.0482
1435 2 22.2309 3.11322 22.12
1214 1 20.5481 1.61614 20.6793
1216 1 23.8717 1.57453 20.6113
1237 1 25.4585 3.20857 18.9526
1437 1 25.3866 3.27123 22.2247
1218 1 27.0491 1.66611 20.529
1239 1 28.5662 3.2426 19.0054
1439 2 28.5292 3.16361 22.0926
1220 1 30.0754 1.54777 20.5218
6221 2 31.5648 3.10622 18.9054
1489 1 12.679 12.6859 22.1589
1241 1 126.8687949206 6.32902 18.903
1441 2 -0.0291209 6.3022 22.1794
1243 1 3.21609 6.40411 18.9671
1443 2 3.30369 6.30944 22.1626
1222 2 1.50386 4.76955 20.4584
1245 2 6.37873 6.34096 18.8924
1445 2 6.43629 6.2877 22.1128
1224 2 4.79013 4.68369 20.6258
1244 2 4.75449 7.99957 20.5933
1226 2 8.01113 4.75914 20.5092
1247 2 9.47296 6.31757 18.9197
1228 1 11.1832 4.70182 20.535
1447 1 9.5849 6.32793 22.2077
1246 2 8.01412 7.9227 20.6227
1249 2 12.6425 6.38155 18.8804
1449 2 12.6795 6.36211 22.092
1230 2 14.156 4.81246 20.4853
1451 1 15.8428 6.28157 22.1074
1251 1 15.8622 6.3154 18.9967
1253 2 18.9974 6.40055 18.9243
1232 2 17.4122 4.77828 20.6155
1453 2 18.9444 6.35634 22.0642
1252 2 17.378 7.95788 20.5457
1255 1 22.2 6.23812 19.0077
1234 2 20.6202 4.66183 20.4867
1455 1 22.0971 6.32962 22.1478
1254 2 20.585 7.87502 20.4982
1236 1 23.8007 4.77546 20.6365
1257 1 25.3591 6.26847 18.941
1457 1 25.317 6.39199 22.1517
1238 1 26.9207 4.73735 20.5183
1256 2 23.7929 7.92687 20.538
1289 2 12.7478 12.5941 18.9791
1259 1 28.5662 6.32911 18.9985
1459 2 28.422 6.39936 22.2729
1240 1 30.1601 4.78399 20.623
1260 1 30.0212 7.92059 20.5485
1286 2 7.92599 14.2752 20.6034
1261 2 0.0314155 9.47624 18.9889
1242 1 1.55644 7.85446 20.5776
1263 2 3.14025 9.52127 19.0535
1262 2 1.51969 10.9838 20.5347
1463 2 3.25529 9.50089 22.1208
1265 2 6.35109 9.48552 18.9852
1465 1 6.38194 9.43905 22.1735
1264 1 4.75286 11.0531 20.5529
1266 2 7.89394 11.134 20.602
1248 2 11.0997 7.78683 20.6029
1267 2 9.5202 9.55782 18.9669
1268 2 11.0629 11.0416 20.5001
1467 1 9.55297 9.49344 22.1498
1250 1 14.2527 7.93047 20.5557
1269 1 12.7921 9.51705 18.944
1270 2 14.2843 11.0548 20.5741
1469 2 12.6804 9.45934 22.152
1471 2 15.8734 9.5107 22.1856
1271 1 15.782 9.47709 19.0344
1273 2 18.8859 9.53545 18.9063
1272 2 17.3643 11.1286 20.5934
1473 1 19.0189 9.46861 22.0911
1275 2 22.1461 9.49193 19.0156
1475 1 22.1394 9.45471 22.1026
1274 2 20.6379 11.0802 20.6083
1258 2 26.9417 7.95088 20.5766
1276 2 23.7406 11.0618 20.5615
1277 1 25.3084 9.47715 19.0041
1477 1 25.2482 9.53642 22.0935
1278 2 26.9159 10.9775 20.555
1487 1 9.47173 12.68 22.1802
1280 2 30.0929 11.0679 20.5585
1279 1 28.5438 9.51541 18.9491
1479 2 28.5807 9.45729 22.1024
1503 2 3.21357 15.6983 22.1652
1283 1 3.10383 12.6755 18.9872
1282 2 1.58672 14.2677 20.5848
1483 2 3.23153 12.5714 22.1352
319 2 28.552 15.8075 3.097
93 1 19.0495 12.6865 0.0155744074
11 2 15.8865 0.129967 0.0055744074
27 2 9.42017 3.24912 158.38
31 2 15.8049 3.22557 158.296
35 1 22.2316 3.16894 158.306
37 1 25.3819 3.13164 -4.2559256855e-04
45 1 6.31852 6.45007 158.388
49 1 12.6385 6.37393 158.342
55 2 22.1886 6.37325 -0.0014255926
1603 1 3.06609 0.118628 25.3467
1617 2 25.4239 0.0341642 25.5257
6601 1 31.6227 -0.0523105 25.3427
1402 2 1.48984 1.60179 23.7652
1623 1 3.25862 3.19685 25.2087
2919 1 28.514 15.738 44.2953
1404 2 4.82247 1.65471 23.7281
1625 2 6.36805 3.1515 25.4443
1406 2 8.00616 1.54087 23.6958
1607 2 9.53953 -0.091478 25.497
1408 2 11.1942 1.48162 23.7011
1627 2 9.4747 3.06018 25.3152
1609 1 12.6842 -0.0661232 25.3318
1629 2 12.7335 3.0909 25.2761
1410 1 14.2647 1.54129 23.6782
1611 1 15.8708 0.0486429 25.3235
1613 1 19.0319 0.082752 25.3848
1631 2 15.8752 3.14808 25.2971
1412 1 17.5388 1.62498 23.8004
1633 2 19.0281 3.15135 25.3557
1615 1 22.1923 0.136005 25.2144
1414 2 20.5582 1.62851 23.7592
1635 2 22.2298 3.21732 25.3151
1416 2 23.7763 1.66782 23.6954
1418 1 26.9475 1.60256 23.7645
1637 2 25.4379 3.12188 25.2938
1619 2 28.4781 0.0448115 25.3529
1420 1 30.2048 1.551 23.7212
1639 2 28.5923 3.21388 25.2755
1422 2 1.53693 4.65761 23.6238
1643 2 3.21774 6.29525 25.2399
1641 2 126.8412735206 6.4121 25.3556
1424 1 4.86077 4.739 23.7463
1645 1 6.36227 6.32765 25.297
1446 2 7.95841 7.89166 23.743
1426 1 8.05483 4.6841 23.7078
1428 2 11.1552 4.75427 23.7212
1647 1 9.50664 6.39062 25.3046
1448 1 11.0769 7.93192 23.7746
1430 2 14.3148 4.74681 23.6969
1649 2 12.6771 6.36796 25.2923
1651 1 15.8084 6.36575 25.3331
1432 1 17.4627 4.76818 23.7828
1653 2 19.044 6.33152 25.3655
1434 2 20.6334 4.76013 23.8181
1655 1 22.2062 6.32377 25.4034
1436 1 23.822 4.71906 23.7727
1438 1 26.9831 4.77607 23.8006
1657 2 25.2817 6.28985 25.3486
1458 1 26.774 7.95891 23.7751
1440 2 30.2458 4.76453 23.6822
1659 2 28.4931 6.36882 25.3321
1460 2 30.047 7.89287 23.6835
6641 2 31.6121 6.4275 25.2955
1442 2 1.54679 7.79753 23.7884
1462 1 1.62535 10.9447 23.7197
1663 1 3.26313 9.51334 25.2948
1444 2 4.7993 7.88086 23.7289
1464 1 4.76282 11.0208 23.7468
1665 2 6.25097 9.47988 25.2749
1466 1 7.88886 11.0984 23.6555
1667 2 9.4704 9.49642 25.3252
1468 2 11.0685 11.074 23.6962
1450 2 14.3202 7.92151 23.7719
1669 1 12.6509 9.36701 25.3047
1470 2 14.2715 11.0278 23.6849
1671 1 15.8926 9.52331 25.2814
1452 2 17.427 7.88548 23.6664
1472 2 17.4604 11.1146 23.7297
1673 2 19.0689 9.49677 25.3469
1454 1 20.5722 7.85597 23.7548
1474 2 20.6268 11.0803 23.6167
1675 1 22.1618 9.52492 25.2711
1456 1 23.7532 7.91182 23.7941
1476 1 23.7443 11.042 23.7069
1478 2 26.9503 11.0528 23.6869
1677 1 25.3598 9.52966 25.3033
1480 2 30.1409 10.9928 23.7088
1679 1 28.4271 9.42435 25.2781
2700 1 30.1942 14.2436 42.6543
1683 1 3.15539 12.5697 25.2736
1482 2 1.48139 14.2989 23.696
2461 1 126.883 9.40095 37.9014
1484 1 4.63223 14.1986 23.7225
1685 1 6.26476 12.6156 25.3161
1486 2 7.84914 14.1413 23.7976
1488 1 11.0523 14.2334 23.7025
1687 2 9.53296 12.6442 25.2992
1689 1 12.7375 12.6456 25.3311
1490 1 14.3007 14.2147 23.6923
1691 2 15.7901 12.6152 25.3062
1693 1 19.0478 12.6249 25.2892
1492 2 17.4736 14.2534 23.7399
1713 2 19.0954 15.8148 25.2519
1494 1 20.6346 14.2576 23.7215
1695 1 22.2217 12.6014 25.2668
1496 2 23.7984 14.2777 23.692
1498 2 27.0611 14.1928 23.7686
1697 1 25.4075 12.6626 25.2409
1500 1 30.1103 14.1451 23.7974
1699 2 28.6173 12.6397 25.3394
2899 2 28.5583 12.6775 44.2924
2897 1 25.3341 12.6813 44.2851
1813 2 19.1894 -0.0269503 28.469
6801 2 31.6755 0.0973288 28.4993
1803 2 2.92452 -0.0762544 28.3465
1602 1 1.52787 1.66742 26.8336
1823 2 3.24252 3.09508 28.3167
1802 2 1.56049 1.68712 30.0195
1604 1 4.77663 1.4897 26.9528
1825 1 6.39311 3.27587 28.4663
1804 2 4.70783 1.54024 30.0814
1807 1 9.66271 -0.0749456 28.4788
1606 1 7.91156 1.54633 26.9314
1608 1 11.1232 1.63494 26.8804
1827 1 9.52329 3.08678 28.5225
1808 1 11.1223 1.64479 30.0268
1809 1 12.6526 0.0558156 28.4878
1610 2 14.3004 1.46583 26.9097
1829 2 12.6744 3.19369 28.4555
1810 1 14.3007 1.51261 30.0361
1831 2 15.8573 3.12131 28.4821
1612 1 17.4118 1.60355 26.9199
1833 1 19.0695 3.12415 28.4743
1812 1 17.4135 1.49126 30.0376
1815 1 22.173 -0.0397052 28.3628
1614 2 20.6145 1.6149 26.8869
1835 1 22.1962 3.22142 28.5555
1814 2 20.6756 1.45074 30.1182
1816 2 23.7097 1.56364 30.1142
1817 1 25.3943 0.0486702 28.4911
1616 1 23.804 1.67329 26.8433
1618 2 26.9967 1.70775 26.9217
1837 1 25.4413 3.17869 28.5354
1819 1 28.5493 0.0242361 28.4348
1620 1 30.045 1.65611 26.929
1839 2 28.651 3.22708 28.4937
1820 2 29.9109 1.47839 30.171
1622 2 1.54137 4.70748 26.841
1843 2 3.2618 6.27522 28.4284
1822 1 1.60298 4.66973 30.0179
1624 1 4.78231 4.75185 26.8898
1845 1 6.33301 6.34734 28.5035
1824 2 4.67302 4.6919 30.0095
1826 2 7.91817 4.7284 30.0529
1626 1 8.05007 4.71229 26.8579
1646 2 7.87683 7.88497 26.9083
1628 2 11.1515 4.78799 26.9163
1847 1 9.46868 6.35705 28.515
1630 2 14.3071 4.7609 26.8164
1849 2 12.6402 6.39715 28.4705
1851 1 15.759 6.3625 28.5106
1632 1 17.4438 4.75676 26.8839
1853 2 18.9313 6.29463 28.4619
1832 1 17.4825 4.7053 29.9701
1634 1 20.6044 4.79371 26.9736
1855 2 22.2483 6.2937 28.5459
1836 1 23.8047 4.69793 30.1115
1654 1 20.5053 7.80469 26.9886
1834 1 20.5696 4.73704 30.1528
1636 2 23.7465 4.77021 26.9351
1638 1 27.0438 4.80619 26.9346
1857 2 25.3098 6.37553 28.5288
1658 2 26.8696 7.85745 26.9078
1640 1 30.2333 4.90926 26.9267
1859 1 28.5065 6.37949 28.5361
1840 1 30.1483 4.79299 30.1106
1642 2 1.66828 7.84495 27.0031
1842 2 1.59382 7.81786 30.1101
1662 1 1.61687 10.947 26.9014
1863 2 3.13582 9.41732 28.5494
1862 1 1.50052 11.0777 29.9982
1644 2 4.76758 7.86993 26.8992
1844 1 4.7011 7.99812 30.0987
1664 1 4.6973 11.0249 26.9557
1865 1 6.32668 9.41748 28.4829
1864 2 4.70125 11.1241 30.1338
1666 2 7.80967 11.0107 26.9406
1846 1 7.92353 7.91785 30.0731
1848 1 11.0503 7.97614 30.0469
1648 2 11.0648 7.87445 26.9481
1866 2 7.85286 10.9707 30.0869
1668 2 11.1073 10.9835 26.8813
1867 2 9.44976 9.49193 28.5067
1868 1 10.9995 11.0313 30.0944
1650 2 14.196 7.85668 26.8154
1850 1 14.2471 7.86226 30.0089
1670 1 14.2363 11.0337 26.9219
1869 1 12.7107 9.438 28.4326
1870 2 14.2382 10.9967 30.0291
1871 2 15.9338 9.53456 28.4647
1652 2 17.3963 7.86736 26.8965
1852 2 17.4024 7.84879 30.0198
1672 1 17.4547 11.0957 26.9549
1873 2 19.01 9.47221 28.4781
1872 2 17.4798 11.1123 30.0424
1656 1 23.8096 7.96684 26.9495
1674 1 20.6187 11.0578 26.9147
1875 1 22.1616 9.4115 28.5521
1874 1 20.5859 11.0641 30.0784
1858 1 27.0353 7.8541 30.1484
1856 1 23.7179 7.87022 30.0897
1676 2 23.7829 11.013 26.8998
1876 2 23.803 11.015 30.1149
1678 2 26.8276 11.0712 26.8671
1877 2 25.3309 9.43563 28.4951
1878 2 26.8253 11.0785 30.023
1660 1 30.1504 7.96435 26.8471
1860 1 30.2006 7.90702 30.1076
1680 2 30.0896 11.0724 26.9259
1879 2 28.5517 9.42726 28.4748
1880 1 30.1408 10.9973 29.9907
1682 1 1.5314 14.2249 26.8342
1883 1 3.13785 12.628 28.4117
1882 2 1.60535 14.2005 29.9998
1903 1 3.09532 15.7928 28.4358
1684 2 4.73636 14.1774 26.8182
1885 2 6.30821 12.6383 28.523
1905 1 6.19271 15.7439 28.4446
1884 2 4.76256 14.2027 30.0791
1686 1 7.87907 14.1706 26.8935
1886 1 7.92084 14.1708 30.0491
1688 2 11.1087 14.2332 26.8706
1887 2 9.49499 12.5675 28.5135
1888 2 11.0774 14.1158 30.0228
1690 1 14.2295 14.1922 26.9636
1889 1 12.6305 12.5658 28.4755
1890 2 14.235 14.1505 30.0667
1891 1 15.775 12.6794 28.5079
1692 2 17.3972 14.1937 26.9508
1893 2 18.9896 12.6327 28.4563
1913 2 18.9987 15.7376 28.4342
1892 1 17.3905 14.2543 30.0804
1694 1 20.5984 14.1758 26.8622
1895 2 22.1399 12.5392 28.4929
1894 1 20.557 14.1828 30.0315
1915 2 22.1625 15.7399 28.3838
1896 2 23.724 14.1057 30.0485
1696 1 23.8178 14.1535 26.8361
1698 1 26.9593 14.1902 26.8784
1897 1 25.2881 12.6294 28.4346
1898 2 26.9042 14.1846 29.9539
1917 1 25.3221 15.8079 28.4349
1700 2 30.1478 14.2081 26.9322
1899 1 28.502 12.6181 28.4996
1900 2 30.1165 14.1242 30.0755
7001 2 31.5583 -0.0611726 31.692
2002 2 1.54053 1.39057 33.1513
2023 1 3.18628 3.09734 31.5902
1806 1 7.89683 1.59977 30.0615
2025 2 6.34617 3.19189 31.6527
2004 2 4.60847 1.4891 33.2836
2005 2 7.80759 1.49967 33.1499
2006 1 9.62487 0.024092 31.6513
2027 1 9.42016 3.102 31.6898
2008 1 11.1069 1.59114 33.2355
2009 2 12.7448 -0.0185365 31.692
2011 2 15.8243 0.0337009 31.6037
2029 2 12.699 3.04618 31.6333
2010 2 14.2691 1.50397 33.2601
2031 1 15.8542 3.14447 31.7099
2012 1 17.4599 1.54988 33.1628
2033 2 18.9787 3.08495 31.6337
2035 1 22.135 3.14803 31.6948
2014 1 20.6024 1.58988 33.2212
2016 1 23.8759 1.58957 33.2007
1818 2 26.8674 1.53028 30.0481
2018 1 26.9387 1.46481 33.1351
2037 1 25.4274 3.17387 31.6026
2020 1 29.9913 1.50801 33.2537
2039 1 28.4801 3.18929 31.7095
7021 1 31.6676 3.05766 31.691
2043 1 3.16746 6.29724 31.619
2022 2 1.57414 4.721 33.1261
2042 1 1.5669 7.8697 33.2062
2024 2 4.73266 4.61468 33.205
2045 2 6.32531 6.27163 31.7267