LAMMPS data file via write_data, version 22 Jul 2025, timestep = 0, units = metal

9826 atoms
5 atom types

4.138480000000004 56.72151999999964 xlo xhi
4.138480000000004 56.72151999999964 ylo yhi
4.138480000000004 56.72151999999964 zlo zhi

Masses

1 26.98154
2 47.9
3 95.94
4 51.996
5 183.5

Atoms # atomic

1274 4 27.336879650239908 14.964399635780344 11.87127952751785 0 0 0
1887 5 28.883439691206785 16.51095923646291 13.41783977699097 0 0 0
1853 2 28.883440514801528 13.417840627962304 13.417839386506767 0 0 0
1272 3 24.243761159073284 14.96439994698551 11.871279538777156 0 0 0
1873 5 7.231599526953209 16.510959318271745 13.41784038387978 0 0 0
581 5 7.231599739220985 4.138480048688592 7.23159985074766 0 0 0
37 2 7.231599910400267 7.231599686839031 4.138480168149871 0 0 0
615 2 7.23160021254118 7.231600430414363 7.231599247911642 0 0 0
2 3 5.685040697022587 5.685040103135668 5.685039941408583 0 0 0
5 1 10.32471856289412 4.138480995254478 4.138480269001644 0 0 0
583 1 10.324720592825635 4.1384805452357964 7.231599436114754 0 0 0
69 5 4.138480419826268 10.324720034367072 4.138480369165808 0 0 0
617 5 10.324719578784753 7.231599099162897 7.231599427654161 0 0 0
4 4 8.778160257413715 5.685039650450392 5.68503895582868 0 0 0
7 5 13.417839752167694 4.138480250058613 4.138480610710183 0 0 0
585 3 13.417839936804887 4.138480010476538 7.2316000837210055 0 0 0
86 3 30.42999993262731 11.871279419515504 5.685039965582947 0 0 0
619 2 13.41783998931141 7.231599092131861 7.231599693801917 0 0 0
6 1 11.87127917208288 5.685040178042896 5.685039643313694 0 0 0
8 1 14.964399849568101 5.685040781010102 5.685040980651752 0 0 0
71 4 7.231599255297041 10.324720318945962 4.138480393052128 0 0 0
1293 3 4.1384802827954275 16.510959110617307 10.32472080835129 0 0 0
1839 5 7.231599316432063 13.41784027974751 13.417840803884314 0 0 0
621 1 16.51096034684895 7.231600491119722 7.231599906131017 0 0 0
10 3 18.057520596784705 5.685039806398193 5.685040769951056 0 0 0
1807 2 10.324720424559105 10.32472015752302 13.417840101116038 0 0 0
1276 4 30.429999951801392 14.964398941129936 11.871279435440092 0 0 0
1268 5 18.05751986737731 14.964401062925745 11.871280620003564 0 0 0
623 2 19.604080729833516 7.231601172070204 7.231600424170002 0 0 0
1837 4 4.138480962016129 13.417839975705856 13.417839685581974 0 0 0
1259 4 4.138480350286771 13.417840005165745 10.324720101342225 0 0 0
1240 5 27.336879328220498 11.871280314198396 11.871280206402988 0 0 0
625 5 22.697199033131128 7.231600118400872 7.231600923382329 0 0 0
12 2 21.150639552839905 5.6850387154322 5.685039856720206 0 0 0
85 2 28.88343995243481 10.324719120752768 4.138480097566252 0 0 0
698 5 30.429999987811833 14.964400240274024 8.778160535044782 0 0 0
115 1 22.69720075769253 13.417839573544859 4.138480263695582 0 0 0
627 3 25.790320116625466 7.231599987323237 7.231599615333689 0 0 0
14 5 24.24376010137459 5.685038916582423 5.685039982753481 0 0 0
596 2 30.429999495381097 5.685040549023503 8.77816009584135 0 0 0
120 3 30.429999854830513 14.964400734421638 5.685040259514262 0 0 0
1206 1 27.336878882089255 8.778159889066355 11.871280695781259 0 0 0
629 3 28.883440653903744 7.231600413649833 7.231599414630672 0 0 0
16 1 27.33688009579064 5.685040062132913 5.685039949214314 0 0 0
1885 4 25.790320005405206 16.51095997471686 13.417840631167936 0 0 0
1851 2 25.790319833811306 13.417840264901487 13.417839852717966 0 0 0
1819 1 28.883440269201945 10.324720056710397 13.417839848511132 0 0 0
649 3 7.231598955483332 10.32472064715667 7.231599926796326 0 0 0
36 4 5.685041133277669 8.778159786628217 5.6850398558418105 0 0 0
70 4 5.685041048752687 11.87128061517422 5.685039632930466 0 0 0
1238 1 24.243760861508648 11.871280139903982 11.871279428473676 0 0 0
651 5 10.324719555507867 10.324720591883283 7.231600356506515 0 0 0
38 3 8.778159149974089 8.778159799405845 5.685039106032003 0 0 0
72 3 8.778159506200168 11.871280670751492 5.685039670302273 0 0 0
1204 2 24.24376063876538 8.778159848553912 11.871279988312352 0 0 0
653 3 13.417840664643526 10.324720673827272 7.231600045975238 0 0 0
40 3 11.871280530831216 8.77815981339149 5.685038761716455 0 0 0
74 3 11.871280111749662 11.871280558178542 5.6850389110817225 0 0 0
42 5 14.964400127868402 8.778160432649287 5.685039588544667 0 0 0
76 2 14.964400088692145 11.871279688238431 5.685039119573046 0 0 0
1817 4 25.790319599695838 10.324719959120552 13.417839903801552 0 0 0
655 4 16.51096047786133 10.324719836005375 7.231600245204479 0 0 0
44 1 18.057520246705543 8.778161354060801 5.685041291965136 0 0 0
78 5 18.05752026848361 11.87127874761344 5.685040252969336 0 0 0
1236 3 21.150639733054835 11.871279463954671 11.871279569104777 0 0 0
657 4 19.60408040667038 10.324719257348693 7.231600560709604 0 0 0
1226 2 5.68504012336413 11.87127989194667 11.871279852895015 0 0 0
659 5 22.697198949189545 10.324720215201754 7.231600181210801 0 0 0
46 2 21.15063860947513 8.77816075547376 5.685039931031972 0 0 0
80 2 21.15063943809902 11.871280005567858 5.685040531420339 0 0 0
1202 2 21.150639542083333 8.77815994082648 11.871279347146123 0 0 0
661 5 25.790320105752382 10.32471998500915 7.231600021575542 0 0 0
48 3 24.243760211693818 8.778160605372554 5.685039521562324 0 0 0
82 1 24.243759862214507 11.871280947519116 5.68503903133782 0 0 0
1815 2 22.697200258456014 10.324719243773641 13.417840538194096 0 0 0
663 3 28.883440285395597 10.324719374461944 7.231599750579139 0 0 0
50 1 27.336880853013284 8.778159811148242 5.685039002542172 0 0 0
84 5 27.336879655121244 11.871280199557706 5.685039450885213 0 0 0
103 2 4.138480130413843 13.417839772694109 4.138481058290654 0 0 0
1270 5 21.150639844385566 14.964400599993308 11.871280503380516 0 0 0
137 3 4.138480306351174 16.51096025142529 4.138480934614864 0 0 0
715 4 4.138480017321022 16.510959455798 7.231599202423333 0 0 0
1813 1 19.60407935860017 10.324719818825303 13.417840723961385 0 0 0
683 4 7.231599508494522 13.41783973802946 7.231600433016922 0 0 0
139 5 7.2316001921448345 16.510959863943633 4.1384803667739 0 0 0
717 1 7.2315997398973755 16.5109594316924 7.2315992274869645 0 0 0
104 2 5.685040284073134 14.964399558918453 5.685040895744487 0 0 0
1234 2 18.05752020863249 11.871279047655351 11.871280771599231 0 0 0
685 4 10.324719239756934 13.417839908062616 7.231600631348299 0 0 0
647 5 4.138480332311382 10.324720028455818 7.231600145467689 0 0 0
719 3 10.324719606258691 16.51096066030851 7.2315997769438685 0 0 0
106 3 8.778160149183671 14.964399332726597 5.685040410548827 0 0 0
1200 3 18.057519581023993 8.7781601709035 11.871279947137133 0 0 0
687 3 13.41784086003472 13.417839992358466 7.231600492131809 0 0 0
1811 4 16.51095975477849 10.324720128558914 13.417840629720594 0 0 0
721 5 13.417840448931514 16.510960380137092 7.231600731961158 0 0 0
108 5 11.87127966292867 14.96439977566607 5.685038937526728 0 0 0
110 5 14.964400218473639 14.964400318089565 5.685039078668464 0 0 0
1232 3 14.964399840747426 11.871278536601222 11.871280578398332 0 0 0
689 5 16.510959629150342 13.417840277759595 7.231600248117808 0 0 0
1198 1 14.964400866195671 8.778160971038112 11.871280719710459 0 0 0
723 4 16.51096034288869 16.510960544304425 7.231600885299813 0 0 0
112 3 18.057520210411386 14.96440152486687 5.685040234126009 0 0 0
1230 4 11.871280078332623 11.871278141551025 11.871280029930173 0 0 0
691 1 19.604080362970404 13.41783966782689 7.231600581924199 0 0 0
147 4 19.604079040445665 16.51096076235624 4.138480126761282 0 0 0
725 4 19.604079308353143 16.510961105809237 7.231600083079936 0 0 0
1196 3 11.871278781358491 8.778160706083828 11.871280250533058 0 0 0
693 4 22.697199805805518 13.417839186408873 7.231599390971049 0 0 0
1809 4 13.417840111474893 10.324719913455922 13.417840242298382 0 0 0
727 5 22.697199846565788 16.510960508651806 7.2316000660776725 0 0 0
114 3 21.150639784288025 14.964400354340334 5.685040328578229 0 0 0
1228 5 8.77815959419696 11.871278556627274 11.871279513257956 0 0 0
695 3 25.790320189496427 13.417840330916674 7.231599843371518 0 0 0
151 2 25.790319976764824 16.51095966445878 4.138480027159783 0 0 0
729 1 25.790320894934418 16.510960546129308 7.231600429991804 0 0 0
116 1 24.243760002390356 14.96439937543321 5.685039584338809 0 0 0
1194 1 8.7781599688266 8.778159869645574 11.871280153458505 0 0 0
697 1 28.883439090468517 13.41784031257957 7.231600393984134 0 0 0
153 4 28.88343996471081 16.510960816211004 4.138480651928151 0 0 0
731 5 28.883439380899784 16.510960099274527 7.231600058372595 0 0 0
118 2 27.336879878274225 14.96440002529426 5.685039244377269 0 0 0
1871 5 4.138480781792607 16.510959395865545 13.417839982112017 0 0 0
1883 5 22.69719944025166 16.510960429881088 13.417840529866197 0 0 0
1879 4 16.510959484931917 16.51096049289163 13.417839672021708 0 0 0
1193 1 7.231600662032676 7.23160097192928 10.324720311641412 0 0 0
580 3 5.685040263710642 5.685040000458312 8.77815988767262 0 0 0
1845 3 16.510959430992003 13.417839476109256 13.41784062652235 0 0 0
1195 4 10.324719567896603 7.231600612005315 10.324720613069719 0 0 0
582 5 8.778160228512952 5.685040743288063 8.778160304507873 0 0 0
1163 4 13.417839920968055 4.138480391751231 10.32472047947255 0 0 0
1197 5 13.417840265670858 7.231599528814464 10.324720173650961 0 0 0
584 3 11.871279582831386 5.685039523834077 8.778160730854223 0 0 0
586 2 14.964400627580877 5.685039778216287 8.778160267912432 0 0 0
1165 1 16.510959198725207 4.138480059006816 10.324720921693729 0 0 0
1199 2 16.5109593893058 7.231600330779424 10.324720343574707 0 0 0
588 5 18.05752034815275 5.6850399986565145 8.778159566678736 0 0 0
1266 4 14.964399757681058 14.964401539114812 11.871280502355765 0 0 0
1201 2 19.604081392252173 7.231601094241306 10.3247191943133 0 0 0
1264 2 11.871280092747343 14.964401644784154 11.871280298511733 0 0 0
1203 4 22.697198955030057 7.2316004938027945 10.32471958763981 0 0 0
590 1 21.150639300578295 5.685039871144317 8.778160784216773 0 0 0
1877 1 13.417839671325181 16.510959232293164 13.41783919817756 0 0 0
1205 2 25.790319799333297 7.231600441761518 10.324720606712217 0 0 0
592 3 24.243759874595433 5.6850400399493015 8.778160413300975 0 0 0
1192 5 5.685041514069313 8.778160277403241 11.871280552050724 0 0 0
1207 1 28.88344053989824 7.231600028779402 10.32472041542852 0 0 0
594 3 27.336879694013618 5.685039592297986 8.77816012909986 0 0 0
1849 3 22.69720013929945 13.417840285839453 13.417840805561042 0 0 0
1227 4 7.231600400322285 10.324720320227065 10.324719392981335 0 0 0
614 3 5.685040770915466 8.778159983126562 8.778160090696879 0 0 0
648 4 5.685040860271972 11.871280604870263 8.778160735162896 0 0 0
1229 4 10.32471963162069 10.324719995334148 10.324720325793258 0 0 0
616 1 8.778159850891722 8.778159944360718 8.7781620980139 0 0 0
650 1 8.778159420906334 11.871280105702343 8.778160269516977 0 0 0
1231 1 13.417839646245733 10.324721002578835 10.324721097454573 0 0 0
618 5 11.871279044512981 8.77816017539161 8.778160960513617 0 0 0
652 3 11.871279342162968 11.871279720796483 8.778160462304097 0 0 0
620 5 14.964401114073082 8.778160449853887 8.778160245929328 0 0 0
654 1 14.964400254120832 11.871278829875857 8.778159858752645 0 0 0
1233 2 16.510960305581705 10.324720160248368 10.324719840472486 0 0 0
622 4 18.057520184552637 8.77816031396353 8.778159564876052 0 0 0
656 3 18.05752052787907 11.871278331989158 8.778159478175622 0 0 0
1235 4 19.604080245283367 10.32471948924141 10.324719367307011 0 0 0
1237 2 22.697199501966185 10.324719336303414 10.324719288084367 0 0 0
624 4 21.150638950710054 8.778160034740079 8.778160816273138 0 0 0
658 1 21.150639569517082 11.871279972501748 8.778159725914124 0 0 0
1239 1 25.790319709048845 10.324720027583979 10.324720160425247 0 0 0
626 2 24.243759806376943 8.77815952414334 8.778161334620942 0 0 0
660 3 24.24375975289381 11.871280819495372 8.778160804136192 0 0 0
1241 5 28.88344005096968 10.324719801587747 10.32472046223183 0 0 0
628 5 27.33687974008839 8.778159847926869 8.778160435069573 0 0 0
662 1 27.336879978706786 11.871281119869407 8.778160864697984 0 0 0
1881 4 19.604080161238986 16.510961241659363 13.417840393754942 0 0 0
1847 2 19.60407976318798 13.41783976917226 13.417840766263295 0 0 0
1261 2 7.231599317692462 13.417840219008859 10.324719889600004 0 0 0
1295 5 7.231599769990593 16.510959130545732 10.32472017593716 0 0 0
682 2 5.685040007828059 14.964399550806636 8.778159645424573 0 0 0
1263 5 10.324719781602195 13.417840105566063 10.324719911442694 0 0 0
1297 1 10.32472065865637 16.510959324774827 10.324721042118417 0 0 0
684 1 8.778159828412482 14.96439926791143 8.778159072400655 0 0 0
1265 5 13.417840373959608 13.417840368236813 10.324720146156043 0 0 0
1299 4 13.4178404340436 16.5109599350777 10.324720437662078 0 0 0
686 3 11.87127987064394 14.964400252628502 8.778160258329052 0 0 0
688 4 14.964400097822576 14.964401081885804 8.778160095995352 0 0 0
1267 5 16.510959255509952 13.417840446863691 10.324719994256265 0 0 0
1301 3 16.5109589927357 16.510959497019773 10.324719596062693 0 0 0
690 2 18.057520343700144 14.964401158546972 8.778158911522546 0 0 0
1269 5 19.604080238253335 13.41783953691397 10.324719623684611 0 0 0
1303 2 19.60407995277075 16.510961191264197 10.324719890969709 0 0 0
1271 1 22.697200182480536 13.417839256087401 10.324719733569435 0 0 0
1305 1 22.697199556817193 16.51096161300726 10.324719953792833 0 0 0
692 5 21.150639559190928 14.964400005140337 8.778159309143804 0 0 0
1273 4 25.79032063053386 13.417839879303658 10.324720191322356 0 0 0
1307 2 25.790320646738717 16.510960122514824 10.324719852717644 0 0 0
694 5 24.24376044171934 14.964399722673116 8.778160296148263 0 0 0
1275 1 28.883439749197866 13.417840787995456 10.324720657134407 0 0 0
1309 2 28.883439744419977 16.510959633230257 10.324720179247658 0 0 0
696 2 27.33687987324387 14.96439963077309 8.778161063211309 0 0 0
1843 5 13.417840300307464 13.417840385969797 13.41784027152183 0 0 0
1769 1 4.138480580968454 7.231598820652388 13.417840522362171 0 0 0
1262 1 8.778160540885814 14.964400711821899 11.871280271134419 0 0 0
1771 4 7.231600148470116 7.231599538936955 13.417840285781276 0 0 0
1158 2 5.685040941373699 5.685040439872485 11.871280476574801 0 0 0
1875 4 10.324720536964909 16.510958855189337 13.4178397723172 0 0 0
1773 4 10.32472001375624 7.231600352985029 13.41784020555153 0 0 0
1160 5 8.778160305407022 5.685040770315785 11.87128066584115 0 0 0
1741 1 13.417841308569539 4.138480900162989 13.417840073170511 0 0 0
1775 5 13.417840379171773 7.23160009341988 13.417840892777981 0 0 0
1162 2 11.87127896966282 5.6850397153408965 11.871280031852038 0 0 0
1164 1 14.964401176029366 5.68503891326019 11.87128050950785 0 0 0
1743 4 16.510958982679632 4.138480392031675 13.41784032412982 0 0 0
1777 4 16.510959044731123 7.231600109106682 13.417840685256088 0 0 0
1166 5 18.057519341986655 5.685040028295801 11.871280633182637 0 0 0
681 3 4.138480692018812 13.417839564389908 7.231600102485519 0 0 0
1779 2 19.60408093820314 7.231600088181069 13.417841054905459 0 0 0
1841 5 10.32472004945197 13.417840489769054 13.417840811145682 0 0 0
1781 3 22.697199130133157 7.231600438823914 13.417840580088832 0 0 0
1168 1 21.150640213341944 5.685040241388426 11.871279314542193 0 0 0
1260 4 5.685039504944185 14.96439886756992 11.871279704710807 0 0 0
1783 4 25.79032046703658 7.2316000032069265 13.417840205550593 0 0 0
1170 5 24.24375983198863 5.685040536945301 11.871279866475136 0 0 0
1751 5 28.883440122877865 4.138480045823641 13.417840206109133 0 0 0
1785 3 28.88343961445737 7.231599654030122 13.41784003117707 0 0 0
1172 1 27.33687948709045 5.685040800411226 11.871279927166421 0 0 0
1803 2 4.138480548741435 10.324721458282605 13.41784020657199 0 0 0
1805 4 7.2316001903533955 10.324720654728914 13.41784023972299 0 0 0
1739 2 10.324719803135535 4.1384806892217165 13.417840378724359 0 0 0
51 4 28.883439558995008 7.231599877457483 4.138480154149102 0 0 0
119 3 28.883439688122937 13.417839985166685 4.13848001373799 0 0 0
81 1 22.69719937716071 10.324720249078895 4.138480061667941 0 0 0
83 1 25.790320101019137 10.324720089017907 4.138480015491233 0 0 0
3586 1 27.33688014949559 14.9643999990572 24.243759850504322 0 0 0
3576 1 11.871279367058223 14.964399922736863 24.243760399176523 0 0 0
2315 1 7.231600314855335 4.138480553821808 16.510959374351582 0 0 0
2349 4 7.23160010887789 7.2315990313662954 16.510959153626523 0 0 0
1736 1 5.68504091192562 5.68504114016058 14.964400061570124 0 0 0
2314 3 5.685039946500604 5.6850407742455005 18.057518863218274 0 0 0
2317 4 10.324720200158358 4.138480460155837 16.510960432357983 0 0 0
2351 4 10.324720446549016 7.231599531025481 16.510959434904922 0 0 0
1738 4 8.778160175777387 5.6850407241874 14.96440022204301 0 0 0
2316 3 8.77816057631148 5.685040493876363 18.057518149009443 0 0 0
3520 2 30.429999784121627 8.77815946189123 24.243760195975188 0 0 0
2353 4 13.417840626701999 7.231599973893073 16.51095981732196 0 0 0
1740 5 11.871278964839743 5.685040686330423 14.964400596703232 0 0 0
2318 1 11.871279361060163 5.685040064536666 18.057518000363423 0 0 0
1742 4 14.964400846999093 5.685040096340162 14.964399863874382 0 0 0
2320 1 14.964399819380967 5.685040007850556 18.057518911456828 0 0 0
3481 3 22.697200496050083 4.138480255621676 22.697200145496655 0 0 0
2355 1 16.510959155447026 7.231600349435084 16.510959562168193 0 0 0
1744 2 18.057519099795947 5.685039768045033 14.96439945730394 0 0 0
2322 3 18.05752005604292 5.685039389416754 18.05751972229881 0 0 0
3010 2 30.429999820784882 14.964399058373807 21.150639990053588 0 0 0
2357 3 19.604080496219293 7.231600567131791 16.5109594891914 0 0 0
3588 5 30.429999035157735 14.96439936826576 24.243760300283128 0 0 0
2359 5 22.697199371018094 7.231600391281207 16.510959586893968 0 0 0
1746 4 21.15063940706138 5.685039660738763 14.964399415635635 0 0 0
2324 1 21.15063996882077 5.685038837397475 18.057520650133476 0 0 0
3486 4 30.429998958637817 5.685040234070893 24.24376092952417 0 0 0
2361 1 25.790320432940113 7.231599065170098 16.510959578968748 0 0 0
1748 3 24.243760636250958 5.685040634229564 14.964399393543351 0 0 0
2326 5 24.243760064909274 5.685040508031571 18.057520756056444 0 0 0
2329 2 28.883439217832585 4.13848042947151 16.510960958974966 0 0 0
2363 5 28.883439149494812 7.231598074627777 16.510960167759432 0 0 0
1750 4 27.336879324987585 5.685040632660173 14.964400028620457 0 0 0
2328 4 27.336880040290094 5.685040806403008 18.057520193984143 0 0 0
3621 2 28.883438863670317 16.51096063034286 22.697199586100737 0 0 0
2383 3 7.231600292285713 10.324721910794503 16.51096009672114 0 0 0
1770 3 5.6850403848334805 8.77815974770791 14.964399784584714 0 0 0
2348 5 5.685039686339193 8.778159772786138 18.057519223512074 0 0 0
1804 2 5.6850400396940275 11.871280049728954 14.964400340132244 0 0 0
2382 4 5.685039719560462 11.871280187523384 18.05751856435483 0 0 0
2385 1 10.324719884956803 10.324720870511177 16.510959700520225 0 0 0
1772 5 8.778160209135626 8.778159195800278 14.96439918305937 0 0 0
2350 5 8.778160104878907 8.77815947394923 18.05751903157159 0 0 0
1806 4 8.778159687982685 11.871279170433061 14.964400476241769 0 0 0
2384 4 8.778160284731342 11.871280519081902 18.05751918490884 0 0 0
2387 4 13.41784047259985 10.32472014851572 16.510959552807396 0 0 0
1774 4 11.871279590287816 8.778160140991563 14.964400608253712 0 0 0
2352 5 11.871280818834764 8.778159947213453 18.05751844270452 0 0 0
1808 3 11.871280348771952 11.8712783082128 14.964399860526322 0 0 0
2386 2 11.871279760067106 11.871279454947201 18.057519779421543 0 0 0
1776 2 14.964399332827924 8.778160272141724 14.964399791245222 0 0 0
2354 2 14.964399337000115 8.77816015329162 18.0575189013835 0 0 0
1810 4 14.964400101071169 11.871279287886086 14.964400128539122 0 0 0
2388 4 14.964400118604605 11.871280106854273 18.0575197766692 0 0 0
2389 5 16.510959620268984 10.324720219708237 16.510959529683525 0 0 0
1778 2 18.057519863033484 8.778160203316563 14.964399291240415 0 0 0
2356 4 18.057520303646466 8.77816044633704 18.05751968006031 0 0 0
1812 4 18.057520374010387 11.871280214941569 14.964399859636341 0 0 0
2390 5 18.057519991850377 11.871280917160368 18.057520471872092 0 0 0
2391 2 19.6040795997835 10.324718967609448 16.510959551737983 0 0 0
2393 5 22.697199958384005 10.324719631539958 16.51095939204676 0 0 0
1780 4 21.150639094286767 8.778160397810241 14.96439920474242 0 0 0
2358 2 21.150639239399595 8.778160532458982 18.057520485694415 0 0 0
1814 3 21.150639351909717 11.871280471783496 14.96440033676605 0 0 0
2392 5 21.15063950200656 11.871280526675815 18.057520061932195 0 0 0
2395 2 25.79031974297132 10.324720310577328 16.510959746052624 0 0 0
1782 2 24.24376127237494 8.778159768420473 14.964399352676095 0 0 0
2360 1 24.243761244125178 8.7781594434584 18.057520349292442 0 0 0
1816 2 24.243760283874362 11.871280093973752 14.9643997429524 0 0 0
2394 3 24.2437602168906 11.871279994476547 18.05751970571925 0 0 0
2397 5 28.883440163544464 10.324721279332628 16.51095944854392 0 0 0
1784 5 27.33687870637705 8.778160073779363 14.96439878419597 0 0 0
2362 5 27.336878768244638 8.778159690709519 18.0575205909931 0 0 0
1818 1 27.336879473862385 11.871279517048047 14.964398908709924 0 0 0
2396 1 27.33687983458231 11.87128025977388 18.057520447481036 0 0 0
3587 2 28.883439715274843 13.417839896650422 22.697198915104792 0 0 0
2449 2 4.138481077372595 16.510959839836055 16.510959131495106 0 0 0
2417 4 7.231600463679948 13.41783964165715 16.510959457431458 0 0 0
2451 5 7.231599657826324 16.51095929526381 16.510959256052065 0 0 0
1838 4 5.685039577282546 14.964398970220355 14.964400622211844 0 0 0
2416 5 5.685040373093381 14.964399705509882 18.057519471565374 0 0 0
2419 3 10.324718869293322 13.417840134130104 16.510959917863943 0 0 0
2453 2 10.324719993549053 16.510958251747663 16.510959100901466 0 0 0
1840 4 8.77816034396738 14.964400003947757 14.96440037197722 0 0 0
2418 2 8.778159645802527 14.964399497641434 18.057519854008763 0 0 0
2421 3 13.417840482916223 13.41783939956715 16.51095972593085 0 0 0
2455 3 13.41783950505471 16.51095945269851 16.510959585017176 0 0 0
1842 4 11.87127956691943 14.964401106464221 14.964399819805886 0 0 0
2420 1 11.871279624642725 14.964400282431674 18.057520470249166 0 0 0
1844 2 14.96440067752819 14.964400094713662 14.964399469340952 0 0 0
2422 5 14.964400386619939 14.964399540704692 18.05751981316482 0 0 0
2423 1 16.51095951005354 13.417838935230877 16.510959903330967 0 0 0
2457 3 16.510961032528055 16.510960390168357 16.510960278973897 0 0 0
1846 5 18.057520399829023 14.96440041817495 14.9644000188286 0 0 0
2424 4 18.057520431268912 14.964398785581178 18.057519864259877 0 0 0
2425 1 19.60407970707391 13.417840737104182 16.51095969601367 0 0 0
2459 2 19.60407923341213 16.51096004576846 16.510959658404882 0 0 0
2427 4 22.69719990864252 13.417840886511602 16.51095918167933 0 0 0
2461 1 22.697200581210595 16.510959658425595 16.510959167402344 0 0 0
1848 4 21.150639355028208 14.964399900882512 14.96440076554204 0 0 0
2426 3 21.150639381277305 14.96439914279926 18.0575192640447 0 0 0
2429 3 25.790319716010917 13.417839549064876 16.51095956468805 0 0 0
2463 1 25.790319746955817 16.51096136861644 16.510959595260147 0 0 0
1850 1 24.24376026985146 14.96440044675749 14.9644005493019 0 0 0
2428 3 24.243759950726982 14.964400679136324 18.05751953957833 0 0 0
2431 3 28.8834403222066 13.417839411295963 16.510959962304874 0 0 0
2465 4 28.883439830868287 16.51096088045792 16.510959984439765 0 0 0
1852 5 27.336879661549414 14.964400583362472 14.964399441896242 0 0 0
2430 5 27.33688017008235 14.96440052336531 18.057520618913745 0 0 0
3584 5 24.24376123155768 14.964399575534499 24.243759570790075 0 0 0
3619 1 25.790320488292753 16.510960483596257 22.697198620444446 0 0 0
2942 5 30.42999930462595 8.778159738483215 21.150641038851862 0 0 0
2927 3 7.2316006258291825 7.231600080442038 19.604080958866373 0 0 0
2892 3 5.68504004974346 5.685040712776031 21.1506406679223 0 0 0
2895 3 10.324720696262924 4.138480409723579 19.604079599335147 0 0 0
2929 5 10.324719601268463 7.231599112125373 19.604080636005904 0 0 0
2894 4 8.778159656043522 5.6850403992967555 21.150640478466073 0 0 0
2897 2 13.417840399439733 4.138480019184957 19.604079301717398 0 0 0
2931 5 13.417840714408337 7.231599522569047 19.604080274861865 0 0 0
2896 2 11.871280049796177 5.685039735996335 21.15064005631047 0 0 0
2898 4 14.964399893670592 5.685039695986674 21.15063972518523 0 0 0
2432 3 30.42999964770601 14.964399912364179 18.057520091680107 0 0 0
2933 3 16.510959529248595 7.231600039979994 19.604080003540247 0 0 0
2900 1 18.05752099774117 5.685039656751498 21.1506406211862 0 0 0
2976 4 30.429999944962102 11.871280609177731 21.150640596165914 0 0 0
2935 5 19.604080316985236 7.231600663989396 19.6040799179283 0 0 0
2908 2 30.4299987227168 5.685040908120468 21.15064041990337 0 0 0
2937 2 22.697199745265365 7.231600443042784 19.60408026715278 0 0 0
2902 5 21.150639695079164 5.685040127749529 21.15063984684467 0 0 0
2330 1 30.429998774599163 5.685040118083378 18.057520308224888 0 0 0
2939 1 25.79032049281826 7.231599062103501 19.60408056597425 0 0 0
2904 4 24.243760510595425 5.685039892964287 21.150639684192402 0 0 0
2907 5 28.883439095251195 4.138480278350206 19.60407923166135 0 0 0
2941 1 28.883439452530762 7.231597996852347 19.604080297247652 0 0 0
2906 4 27.336879915313208 5.685040849455729 21.150640483286395 0 0 0
3585 4 25.79031959159841 13.417840066051845 22.69719916661799 0 0 0
2961 5 7.231600269114507 10.324720700102864 19.60408017545945 0 0 0
2926 2 5.685040287056687 8.778159520595137 21.150640730796457 0 0 0
2960 5 5.685039819217167 11.871280469785926 21.150640862532526 0 0 0
2963 5 10.324720076365258 10.324721640526404 19.604080168070386 0 0 0
2928 2 8.778159201916345 8.7781597012371 21.150640721325015 0 0 0
2962 4 8.77815982841039 11.871280628232343 21.15064038956774 0 0 0
2965 2 13.417840130221297 10.324720640018423 19.604080195589077 0 0 0
2930 1 11.87128078054345 8.778160875765993 21.150640499770468 0 0 0
2964 4 11.871280486953685 11.87128001677101 21.15063997090987 0 0 0
2932 1 14.964399275585043 8.778160458436437 21.150640127520404 0 0 0
2966 1 14.964399454056094 11.871280415212874 21.15063945727363 0 0 0
2967 3 16.51095963078616 10.32472015239277 19.604079499376795 0 0 0
2934 5 18.057520374496512 8.778159886904938 21.150639603972277 0 0 0
2968 2 18.05752059446711 11.871280781236853 21.150638264266252 0 0 0
2969 1 19.604080701366115 10.324719505304154 19.60408079758121 0 0 0
2971 3 22.697199487798578 10.3247197199285 19.604081365671473 0 0 0
2936 4 21.150639950670634 8.778160367195925 21.15063987347942 0 0 0
2970 4 21.15063941254732 11.871279773214832 21.150639544833858 0 0 0
2973 1 25.79031973080698 10.324720618534698 19.604080605361155 0 0 0
2938 2 24.243760168278843 8.77815998039605 21.150639865768664 0 0 0
2972 4 24.243760755800228 11.871279759535051 21.15064063240787 0 0 0
2975 5 28.883439797742103 10.324720992474498 19.60408090154063 0 0 0
2940 2 27.336880302841426 8.778159079579446 21.150640350355943 0 0 0
2974 2 27.3368799532774 11.871280582825065 21.15064054605201 0 0 0
3582 5 21.150639344122947 14.964400145107698 24.243760266553767 0 0 0
3617 3 22.697199376098407 16.51096070804177 22.697198429822322 0 0 0
2995 5 7.231600575866475 13.417839804525936 19.604079844428902 0 0 0
3029 4 7.231599744896972 16.510959858641694 19.604080867755567 0 0 0
2994 4 5.685040315852622 14.964400493478484 21.150641054560477 0 0 0
2997 4 10.324719589123278 13.417839017702764 19.60407947615189 0 0 0
3031 5 10.324719685940627 16.510959078729577 19.604079889892486 0 0 0
2996 3 8.778159237143122 14.964400242322688 21.15063983745262 0 0 0
2999 5 13.41783975189981 13.417838887119514 19.604079838145953 0 0 0
3033 1 13.417840066751452 16.510959960395752 19.604079225067554 0 0 0
2998 5 11.871279418781194 14.964399214283874 21.15063984230407 0 0 0
3000 5 14.96440105989982 14.96439971271812 21.150640042241466 0 0 0
3001 4 16.51096050770466 13.417839604249895 19.60407986882722 0 0 0
3035 5 16.510960707025706 16.510960168568992 19.60407937801088 0 0 0
3002 1 18.0575197055405 14.96439944467181 21.150639261123665 0 0 0
3003 4 19.604079904963474 13.417840560398776 19.60408092941229 0 0 0
3037 3 19.604079806519074 16.51095947812987 19.604080340459795 0 0 0
3005 5 22.697199608029152 13.417839698450253 19.604081080757517 0 0 0
3039 5 22.69720042303546 16.510960929560497 19.604080977275203 0 0 0
3004 4 21.150639457749318 14.964399691756487 21.150639511525224 0 0 0
3007 3 25.790320022604135 13.417839610220732 19.60408126153645 0 0 0
3041 4 25.790319480829783 16.510960882273395 19.604080943888484 0 0 0
3006 1 24.243761195333548 14.964400564093769 21.150640550260473 0 0 0
3009 4 28.883440156827216 13.41783913359923 19.604080606769763 0 0 0
3043 3 28.883439507247786 16.510960710913057 19.604080500386523 0 0 0
3008 2 27.336879418727225 14.964399994872084 21.150640226030465 0 0 0
3583 5 22.697200167716932 13.41783898308863 22.697199248079222 0 0 0
3503 1 4.13848043665182 7.231599980072031 22.6972005713368 0 0 0
3581 3 19.604080688018776 13.417840014583886 22.697198600575796 0 0 0
3505 4 7.2316000964012614 7.231600299004337 22.69719971397902 0 0 0
3470 3 5.685039404929927 5.685040200034311 24.243759678882665 0 0 0
3473 3 10.324719252113452 4.138480245189955 22.697200322924118 0 0 0
3507 3 10.324719249383252 7.231599550526819 22.697198862533863 0 0 0
3472 2 8.778159839440303 5.685040564806946 24.243759458695322 0 0 0
3580 1 18.057519464061322 14.964400896863236 24.24375966595716 0 0 0
3509 3 13.41784082556836 7.231599350079178 22.69719913945537 0 0 0
3474 5 11.871280023703473 5.685040106927546 24.243760252881366 0 0 0
3476 4 14.96440045408087 5.685039957168761 24.243760897079365 0 0 0
3613 4 16.510960921409943 16.510959664530468 22.69719985415589 0 0 0
3511 5 16.510959827950277 7.231598529075938 22.697200188738748 0 0 0
3478 4 18.057520906401326 5.685039819837391 24.243760868432986 0 0 0
3479 2 19.604079528290427 4.138481288784115 22.697201321411274 0 0 0
3513 1 19.60408069743476 7.2315997603371756 22.697200958464784 0 0 0
3579 3 16.510960208336797 13.417840112272824 22.69719944479307 0 0 0