LAMMPS data file via write_data, version 12 Jun 2025, timestep = 0, units = metal

2000 atoms
5 atom types

0.0155 30.9845 xlo xhi
0.0155 30.9845 ylo yhi
0.0155 30.9845 zlo zhi

Masses

1 26.98154
2 47.9
3 95.94
4 51.996
5 183.5

Atoms # atomic

1 3 0.015500153565297582 30.984499856294644 0.01550001145218426 0 -1 0
2 2 1.5639499454226766 1.563949731235874 1.5639504695747368 0 0 0
201 4 30.984499994922835 30.98449982655243 3.1123997628670033 -1 -1 0
202 5 1.5639503278355391 1.5639499806234898 4.66084978398249 0 0 0
401 3 30.98449991610824 30.984499930272516 6.20929996508726 -1 -1 0
21 3 30.98449995621947 3.112400212160076 30.984499652299938 -1 0 -1
22 1 1.5639499229924518 4.660850345152311 1.5639499948166096 0 0 0
221 2 0.015500049161037732 3.1123998091370466 3.112399683093722 0 0 0
222 2 1.5639501404051614 4.660849763132804 4.660850056099674 0 0 0
421 2 0.01550032768903413 3.1123999801060087 6.209300048442824 0 0 0
41 4 30.984499920367202 6.2092998560322625 30.984499809182505 -1 0 -1
241 2 30.984499973050717 6.209300257997359 3.112399674608464 -1 0 0
441 1 0.015500176106355477 6.209300025834545 6.209299819683787 0 0 0
3 5 3.1123998645162656 30.984499956645152 30.984499846496103 0 -1 -1
4 1 4.660850188179618 1.5639497870835308 1.5639504640675472 0 0 0
203 4 3.112400268108824 30.9844999051048 3.112400029362068 0 -1 0
204 4 4.660849795791557 1.5639500523660654 4.660849818605555 0 0 0
403 1 3.112400469562492 0.015500221808215753 6.20929961566377 0 0 0
23 3 3.112399772944743 3.1124000439097927 30.984499884810134 0 0 -1
24 1 4.66085004030949 4.660850006469154 1.5639504045534378 0 0 0
223 2 3.11240037290004 3.112399814538442 3.1124001202007765 0 0 0
224 3 4.6608497121038654 4.660849612583313 4.660849710241038 0 0 0
423 4 3.112400170742818 3.112399822341053 6.2092998940117 0 0 0
43 2 3.112399681231295 6.209299732147993 30.984499900288277 0 0 -1
243 4 3.1123999750269125 6.209299930390178 3.1124000837409 0 0 0
443 1 3.112400147445083 6.209299970407331 6.209299728588568 0 0 0
5 4 6.209300206899542 30.984499847101848 0.015500031811378127 0 -1 0
205 3 6.209299766774234 30.984499940486305 3.1123999713648494 0 -1 0
405 3 6.209299574900751 0.015500066475790717 6.209299663807558 0 0 0
25 3 6.209300359069418 3.112400029074316 0.01550028521754518 0 0 0
225 4 6.2093000500192685 3.112400070897211 3.1123999148494095 0 0 0
425 5 6.209299853862206 3.1123997735975064 6.209299755195783 0 0 0
45 1 6.209300673355933 6.209299772586521 0.015500128603921757 0 0 0
245 5 6.209300267201008 6.209299778387873 3.1123997824722274 0 0 0
445 5 6.209300015729172 6.20930019685628 6.209300102429077 0 0 0
6 2 7.757750028567707 1.5639497093924455 1.5639500678996445 0 0 0
206 5 7.757749806369356 1.563950333872321 4.660849695494318 0 0 0
26 4 7.757749915280435 4.660850012124236 1.5639502655572017 0 0 0
226 2 7.75775024712971 4.660849917010735 4.660849523739635 0 0 0
7 4 9.306199943572429 30.984499891358325 0.015500167523425928 0 -1 0
8 4 10.854650217579492 1.5639496132871158 1.5639497651919176 0 0 0
207 2 9.306200120550354 0.015500214162892397 3.1123992845631743 0 0 0
208 3 10.854650290773783 1.5639496738018854 4.660849732440383 0 0 0
407 3 9.306200135685938 0.015500205753842757 6.209300254618666 0 0 0
27 3 9.306199982788268 3.112399862669186 0.015500308270821194 0 0 0
28 5 10.854650165301214 4.660850165968989 1.5639502393636857 0 0 0
227 5 9.306199914367616 3.1124001859383172 3.112399863080456 0 0 0
228 4 10.854649908082745 4.660850373272081 4.660849754414017 0 0 0
427 3 9.306200233477517 3.1124002673736983 6.209299876563901 0 0 0
47 5 9.30619968459893 6.209300008693354 0.015500068402819272 0 0 0
247 4 9.306200079950166 6.209299931386792 3.11240022172227 0 0 0
447 3 9.306200241678455 6.209299863803029 6.209299342104811 0 0 0
9 4 12.403100059008379 0.015500039361763621 0.015500221616558157 0 0 0
209 4 12.403100288642518 0.015500206020907582 3.1123997980422193 0 0 0
409 2 12.403100296390273 0.01550033119747899 6.209299681431253 0 0 0
29 4 12.403099976929854 3.112399730526641 0.015500157576283938 0 0 0
229 5 12.403099843845768 3.1123998559827806 3.1124000126963094 0 0 0
429 3 12.403099824682291 3.1123997648919683 6.2092997307585325 0 0 0
49 1 12.403100114555746 6.209300118823451 0.015500276004582026 0 0 0
249 4 12.403099912778595 6.209300279776705 3.1124002418092074 0 0 0
449 5 12.403099883383566 6.209300106989487 6.209299471254465 0 0 0
10 1 13.95154909655034 1.563949776924366 1.5639498180634823 0 0 0
210 4 13.951549681410935 1.563949774031034 4.660849944114149 0 0 0
30 2 13.951549650566934 4.660850186444973 1.5639498453647471 0 0 0
230 3 13.951549868069119 4.660850272654517 4.6608498746384734 0 0 0
11 5 15.49999998191668 0.015500017514172492 30.98449991452465 0 0 -1
12 2 17.048450251139823 1.5639499396590104 1.5639497404974774 0 0 0
211 5 15.49999983905867 30.98449977833022 3.112400131303907 0 -1 0
212 2 17.04845000476964 1.5639501918512573 4.6608500006989315 0 0 0
411 5 15.499999888517195 0.015500204412130984 6.209299867303318 0 0 0
31 3 15.500000186601504 3.1123997742869913 30.98449967349253 0 0 -1
32 5 17.04845032309794 4.660850352611177 1.563949884672161 0 0 0
231 5 15.499999984532199 3.1123999403392917 3.112400136770357 0 0 0
232 3 17.048450098112703 4.660850159696966 4.660849945449065 0 0 0
431 2 15.49999981415864 3.1123996167899466 6.209299668178029 0 0 0
51 2 15.50000007207621 6.2093000106671425 30.984499896080216 0 0 -1
251 1 15.499999506814254 6.20930045682257 3.1124000160668146 0 0 0
451 1 15.499999698071484 6.2093003300015575 6.209299720451704 0 0 0
13 4 18.596899757104794 0.01550021236778266 30.984499917037546 0 0 -1
213 1 18.59689970762261 30.98449992390646 3.1124000863732637 0 -1 0
413 5 18.596899879334035 30.984499878003643 6.209299856694437 0 -1 0
33 5 18.59689986336414 3.1124000788478074 30.98449983293055 0 0 -1
233 1 18.596900225683367 3.1124000393114017 3.112399687821844 0 0 0
433 1 18.59689998541596 3.112399676588904 6.209299921093167 0 0 0
53 4 18.59690014252275 6.209299767812488 30.984499876747147 0 0 -1
253 4 18.596900216590868 6.209299944528557 3.1123998112400084 0 0 0
453 5 18.596900085483313 6.209299962927525 6.209299918320464 0 0 0
14 2 20.145350051585307 1.5639499856506824 1.5639501458651306 0 0 0
214 1 20.145350383616755 1.5639501293453815 4.660849707404448 0 0 0
34 4 20.145349796425574 4.6608501257674675 1.5639501647593594 0 0 0
234 2 20.14535004898326 4.660850031909876 4.660849807559737 0 0 0
15 5 21.69379996099167 30.984499983487733 0.015500184926320366 0 -1 0
16 1 23.242249954213342 1.563949880559629 1.5639503252886675 0 0 0
215 4 21.693799943245093 0.015500027963113483 3.1123999750904883 0 0 0
216 2 23.24225004432902 1.5639496561749238 4.660850034444024 0 0 0
415 3 21.69380026150271 0.015500325874652223 6.209300148045813 0 0 0
35 3 21.69379971722665 3.112400198729919 0.015500186049016224 0 0 0
36 2 23.242249820661655 4.6608499486016015 1.5639500646170716 0 0 0
235 4 21.693799895169338 3.112400089398823 3.112399825000681 0 0 0
236 3 23.242249662892252 4.660849818650894 4.66085001477404 0 0 0
435 2 21.6938002394986 3.1123997026412575 6.209299941923418 0 0 0
55 5 21.693799972001777 6.209300025702984 0.015500425678086977 0 0 0
255 3 21.693799844254382 6.209299964908586 3.1123996534042626 0 0 0
455 1 21.69380014913925 6.209300305261686 6.209300043936286 0 0 0
17 1 24.790700184065013 30.98449994633743 0.015500195874685296 0 -1 0
217 2 24.790700278231906 30.98449997141252 3.1124000552143856 0 -1 0
417 4 24.790700149026705 0.015500168116927292 6.209300123686987 0 0 0
37 3 24.790700253713183 3.1124001446131473 30.98449999555143 0 0 -1
237 3 24.790700140274552 3.1123999299294858 3.112399807368103 0 0 0
437 5 24.790700242634777 3.1123996224444093 6.209300481147952 0 0 0
57 2 24.79069994413584 6.209299778186695 0.015500305590963616 0 0 0
257 5 24.790699912981065 6.20929994549566 3.1123996231432587 0 0 0
457 5 24.7907000731313 6.2093001486419634 6.209300518571131 0 0 0
18 4 26.339149845254163 1.5639499489129065 1.5639499999219313 0 0 0
218 5 26.339149855666676 1.5639496003494906 4.660850422858087 0 0 0
38 2 26.339150235318847 4.660850116434713 1.5639496910505146 0 0 0
238 2 26.339150331119882 4.660849926742438 4.660850308918891 0 0 0
19 3 27.88759980589921 0.015500119486118732 0.015500251898662921 0 0 0
20 2 29.4360501575718 1.5639500098204622 1.5639502881993212 0 0 0
219 5 27.887599728395944 30.98449998617426 3.112400047489777 0 -1 0
220 5 29.43604996547342 1.5639495692021657 4.660849906263589 0 0 0
419 4 27.88759959969307 30.98449986771907 6.209299831665715 0 -1 0
39 3 27.887599900090617 3.1124001604622302 30.984499834960943 0 0 -1
40 3 29.43605014573898 4.660850432266857 1.5639496678364428 0 0 0
239 3 27.887599647963096 3.1123998588553183 3.1123997385042794 0 0 0
240 5 29.43605001681341 4.660850051728302 4.6608499336278655 0 0 0
439 2 27.88759923713612 3.1123999278642303 6.209300300881926 0 0 0
59 4 27.88760008827376 6.2092998517688995 30.98449995076398 0 0 -1
259 3 27.887599957265387 6.209300163939816 3.112399816565513 0 0 0
459 1 27.88759949026941 6.209299715150515 6.209300001604405 0 0 0
42 1 1.5639499588712071 7.757749659207314 1.5639498957885185 0 0 0
242 2 1.5639500843859686 7.757750001865589 4.660849894789127 0 0 0
61 3 30.98449985062546 9.3061997615147 0.015500237021289762 -1 0 0
62 5 1.5639500106594875 10.854650022510812 1.5639500990576793 0 0 0
261 3 0.015500019459778138 9.306200029898678 3.112400067486608 0 0 0
262 4 1.5639499960445804 10.854649873451164 4.660850056460935 0 0 0
461 2 0.015500096804794179 9.306200566937317 6.2092999253768255 0 0 0
81 5 30.984499697897974 12.403100527117987 30.98449982314152 -1 0 -1
281 3 0.015500295361028711 12.40310028752932 3.1124000975326838 0 0 0
481 5 0.015500066161697305 12.40309984398776 6.209299921601965 0 0 0
44 5 4.6608498337045585 7.757749790051188 1.5639501086123968 0 0 0
244 2 4.660849789659993 7.7577500554173335 4.66084992129875 0 0 0
63 1 3.112399994064331 9.306200241570362 30.984499965746455 0 0 -1
64 1 4.660850083496919 10.854649985162926 1.563949813912628 0 0 0
263 3 3.112400040455666 9.306200355378623 3.112400508571023 0 0 0
264 4 4.660850175722574 10.85465003251099 4.660850275316253 0 0 0
463 1 3.1124003078819773 9.306200765161622 6.209299671844121 0 0 0
83 5 3.11240015752596 12.403100407091928 30.984499648713488 0 0 -1
283 5 3.112399909202073 12.40310013268706 3.112400596416577 0 0 0
483 5 3.1124003440037677 12.403099663464149 6.209299687363038 0 0 0
65 1 6.209300101513303 9.306200000021157 30.98449986579548 0 0 -1
265 3 6.2092999134560145 9.306200155618091 3.1124004635799265 0 0 0
465 1 6.2092996728236365 9.306200401827558 6.209299821919228 0 0 0
85 4 6.209299775705081 12.403100266579887 30.984499933823653 0 0 -1
285 5 6.20929982527439 12.403099953573461 3.1124004152265656 0 0 0
485 4 6.209299454156094 12.403099893281196 6.209299811906651 0 0 0
46 1 7.757750434371997 7.757749920320799 1.5639501977718697 0 0 0
246 2 7.757750514922829 7.757750042830749 4.660849747411788 0 0 0
66 3 7.757750157486158 10.854650061150336 1.5639499519193956 0 0 0
266 2 7.757750174303165 10.854650349078991 4.66085030906411 0 0 0
48 1 10.854649936297708 7.757749818584461 1.5639506639797252 0 0 0
248 4 10.854649889139681 7.757749817300611 4.660849437531795 0 0 0
67 1 9.306200093550824 9.306199830013979 0.015500266654799694 0 0 0
68 4 10.854649831643124 10.854649993643873 1.5639502413183342 0 0 0
267 4 9.306200365523063 9.30619996452598 3.1124001796865155 0 0 0
268 4 10.854649829756818 10.854650193973688 4.660849934973486 0 0 0
467 5 9.30620009984082 9.306200080073873 6.2092995758842 0 0 0
87 1 9.306200015010127 12.403100046695448 0.015500221459466033 0 0 0
287 1 9.306200173700061 12.40309947489985 3.1124001192190662 0 0 0
487 4 9.306200171648241 12.403099645997987 6.2092998892248294 0 0 0
69 5 12.403100011380815 9.306199854172776 0.015500330028517544 0 0 0
269 3 12.403099643199193 9.306199659803427 3.1124002279224015 0 0 0
469 5 12.40310013480288 9.30620013045954 6.209299723010311 0 0 0
89 5 12.403099901436486 12.403099976652145 0.01550013404087415 0 0 0
289 2 12.403099674619465 12.403099666699903 3.1123999783624146 0 0 0
489 2 12.403099885998387 12.403099521477897 6.209300114369051 0 0 0
50 4 13.951549861591623 7.757749742024112 1.5639500525921641 0 0 0
250 4 13.951550005354614 7.7577498202101065 4.660849910274005 0 0 0
70 5 13.951550052921142 10.854650073471081 1.5639496905274386 0 0 0
270 5 13.951549788598234 10.854650005444686 4.660850209467045 0 0 0
52 2 17.048450153618543 7.757749605249608 1.563949931956719 0 0 0
252 3 17.048449872815883 7.7577498291488665 4.660849990134157 0 0 0
71 1 15.499999670124712 9.306199824106525 0.015500094498697587 0 0 0
72 3 17.048449907905503 10.85465047379153 1.5639495201231195 0 0 0
271 5 15.499999569799614 9.306199629373877 3.112399985889573 0 0 0
272 5 17.04844992344758 10.854650067413557 4.660850050513516 0 0 0
471 2 15.499999617858345 9.30619998594685 6.209300018875234 0 0 0
91 4 15.50000011123052 12.403100014903087 0.015500000131516565 0 0 0
291 1 15.500000238214449 12.403100265196478 3.112399939460201 0 0 0
491 5 15.49999990128628 12.403099867858256 6.209300139156035 0 0 0
73 2 18.596900051264615 9.306199840902737 0.015500168561377788 0 0 0
273 5 18.59690020470185 9.306199735032674 3.1123999446610795 0 0 0
473 3 18.59690008420567 9.30620002252125 6.209300000985437 0 0 0
93 4 18.59690001186367 12.403100222633153 0.015500044988187538 0 0 0
293 5 18.596900077419754 12.40310030671379 3.112400156549248 0 0 0
493 1 18.59690004589434 12.403100289936031 6.20929987942932 0 0 0
54 1 20.14534981227553 7.7577497580521735 1.5639499519134168 0 0 0
254 2 20.145350092437138 7.757749925582852 4.660850010146528 0 0 0
74 3 20.145350131834668 10.85465021049208 1.5639494744852227 0 0 0
274 5 20.145350173627396 10.854650051592694 4.660850052329196 0 0 0
56 4 23.24224994865516 7.7577501989883375 1.5639498492430974 0 0 0
256 5 23.24224984544012 7.757750083914274 4.6608500355930875 0 0 0
75 2 21.693800400962786 9.306200157425698 0.015500260497761952 0 0 0
76 4 23.242249775126893 10.85465003180938 1.5639498471419575 0 0 0
275 1 21.693800503845733 9.3062000538901 3.1123996951184156 0 0 0
276 4 23.242250031584376 10.854650105028044 4.660850242608986 0 0 0
475 1 21.693800359328307 9.306199942623834 6.209300017512337 0 0 0
95 4 21.693800212479385 12.403099892459558 30.98449992438458 0 0 -1
295 3 21.693800387083208 12.403100067490215 3.112400361244927 0 0 0
495 1 21.69380047759094 12.403100511805839 6.209299642298171 0 0 0
77 2 24.790699570826767 9.306200252202405 0.015500388342687486 0 0 0
277 5 24.79069945478474 9.306200338234845 3.112399906947769 0 0 0
477 1 24.790699922425127 9.306200429916942 6.209300197552597 0 0 0
97 3 24.79069966811981 12.403099680286914 30.984499894582868 0 0 -1
297 2 24.79069967712997 12.403099858311075 3.1124002137083475 0 0 0
497 4 24.790699856119684 12.403100023945974 6.209300024786266 0 0 0
58 1 26.339150139364147 7.757749835765412 1.5639494715689328 0 0 0
258 5 26.339150116626143 7.7577499969209915 4.660849924943052 0 0 0
78 1 26.33914991059959 10.854649903537812 1.5639498371869114 0 0 0
278 2 26.33914974341615 10.854650028901268 4.660850533720545 0 0 0
60 4 29.436049956924734 7.757749798197909 1.5639497026332287 0 0 0
260 2 29.436049868888013 7.757749968089002 4.660850206125889 0 0 0
79 1 27.887600141364878 9.30619981072541 0.015500364447754785 0 0 0
80 1 29.436050035165408 10.854650011649584 1.5639498986476752 0 0 0
279 3 27.887600131444128 9.306199857374615 3.11239984316116 0 0 0
280 5 29.43605007264438 10.854649847556802 4.660850066563522 0 0 0
479 1 27.88759981421599 9.306200552228242 6.209300408507657 0 0 0
99 2 27.88760031280196 12.403100410438316 0.0155001392736976 0 0 0
299 5 27.88760008518958 12.403100061306809 3.1123997807124595 0 0 0
499 3 27.887599851097853 12.40309961436736 6.20930053736353 0 0 0
82 2 1.5639498782543828 13.951550076086205 1.5639501253911565 0 0 0
282 4 1.5639499250133304 13.95155011597223 4.660849868434353 0 0 0
101 3 30.984499815107366 15.499999389383436 30.984499813508346 -1 0 -1
102 1 1.5639502727130685 17.04845019377618 1.5639500894060285 0 0 0
301 2 30.98449984654522 15.49999946416137 3.112399972565406 -1 0 0
302 3 1.563950124282976 17.048450067543865 4.6608497629717265 0 0 0
501 1 0.015500137435501759 15.49999962949706 6.209299876705423 0 0 0
121 1 30.984499664311205 18.596900422801937 30.984499537650887 -1 0 -1
321 2 30.984499878393496 18.596900043545926 3.1123999916442457 -1 0 0
521 1 0.015500030505508067 18.596900124674097 6.209300165147964 0 0 0
84 2 4.660850040145184 13.951550031450637 1.5639498750268197 0 0 0
284 4 4.660850300365054 13.951550118476055 4.660850379502988 0 0 0
103 1 3.112400449832231 15.49999954679149 30.984499828508948 0 0 -1
104 4 4.660849750201121 17.04845019152034 1.5639501806256584 0 0 0
303 1 3.112400508003296 15.49999946020355 3.1124002180229313 0 0 0
304 1 4.660850419423127 17.048450260749284 4.660850198261373 0 0 0
503 5 3.1124002352613678 15.499999975955808 6.2092997984903855 0 0 0
123 1 3.1124003056298104 18.59690002018122 30.984499929985503 0 0 -1
323 4 3.1124002734923204 18.59689983176083 3.1123998880711667 0 0 0
523 1 3.1124003551596737 18.596899930650284 6.209300361481209 0 0 0
105 5 6.209299951071904 15.500000248254382 30.984499827743413 0 0 -1
305 5 6.209299955998734 15.500000409867862 3.11240019524624 0 0 0
505 4 6.209299692986077 15.50000020724003 6.209299792453396 0 0 0
125 3 6.209300011907423 18.59689951032585 0.015500184286062283 0 0 0
325 2 6.209300277210884 18.596899681356753 3.112400072920193 0 0 0
525 4 6.209300069145969 18.596899717911903 6.209299865122367 0 0 0
86 1 7.75775039407238 13.95155011481974 1.563949755310688 0 0 0
286 5 7.757749669262466 13.951549891404001 4.660850266724325 0 0 0
106 4 7.757750277109068 17.048449998154116 1.5639500127403472 0 0 0
306 4 7.757749704275711 17.04845005513223 4.6608501535072415 0 0 0
88 3 10.85465003853444 13.951550296798839 1.5639500691706516 0 0 0
288 5 10.85465020090195 13.951550005024814 4.660850057770212 0 0 0
107 4 9.306199590043597 15.500000191298657 0.015500028429727933 0 0 0
108 3 10.854650081936434 17.048449607997405 1.5639498731907249 0 0 0
307 2 9.30619970349462 15.500000557936318 3.1124001198093025 0 0 0
308 4 10.854650077531394 17.04844976313595 4.660849798362565 0 0 0
507 5 9.306199913454229 15.500000168628045 6.209299672673488 0 0 0
127 1 9.306199703227149 18.596899691873283 30.984499949251248 0 0 -1
327 1 9.306199681036377 18.59689971706994 3.112400467566437 0 0 0
527 5 9.30619973667953 18.596899951618983 6.209299520092754 0 0 0
109 2 12.403100156595023 15.500000363476879 30.984499837830825 0 0 -1
309 4 12.403099980641727 15.50000025279526 3.112400180227857 0 0 0
509 2 12.403099869421755 15.500000194172562 6.209299667420665 0 0 0
129 4 12.403100069152268 18.596899912789496 30.98449995225267 0 0 -1
329 5 12.403099790338844 18.59689967110495 3.1124001047527994 0 0 0
529 2 12.403099653962421 18.596899881076517 6.209299694385483 0 0 0
90 5 13.95155001705755 13.951550138650257 1.5639501389290247 0 0 0
290 1 13.951549663179765 13.95155010481203 4.660849924349324 0 0 0
110 1 13.9515496939801 17.048449875196024 1.5639496916315454 0 0 0
310 1 13.951550019910648 17.048449660145025 4.660850215527516 0 0 0
92 1 17.048449830903518 13.951549415092414 1.563949537875215 0 0 0
292 1 17.04844996402205 13.951550121660159 4.660850205644932 0 0 0
111 3 15.500000074243703 15.500000353061997 0.01550000701406176 0 0 0
112 4 17.048450014923205 17.048450293163583 1.5639497619428266 0 0 0
311 5 15.500000241412119 15.5000002852331 3.1124000278769954 0 0 0
312 4 17.04844980788414 17.04844991406417 4.660850226515523 0 0 0
511 4 15.50000013285063 15.500000066636979 6.209299678815443 0 0 0
131 2 15.500000275567055 18.596899683359236 0.015500218756211177 0 0 0
331 1 15.50000056820884 18.59689965796343 3.1123996908525084 0 0 0
531 2 15.500000058900435 18.596899754265614 6.209299686857299 0 0 0
113 5 18.596899970769698 15.500000148094804 0.015500252917452712 0 0 0
313 3 18.596899929899877 15.500000291657878 3.112400193856356 0 0 0
513 1 18.596900061518827 15.500000021222391 6.209299466120649 0 0 0
133 4 18.5968998735633 18.59689995409241 0.015500505319515094 0 0 0
333 5 18.596899789573367 18.596899881882074 3.1123996212829175 0 0 0
533 3 18.59690007392014 18.59689968432167 6.209299653796743 0 0 0
94 3 20.14535039233151 13.95154997327658 1.56394965910013 0 0 0
294 4 20.145350327448647 13.951550256420497 4.660850148467363 0 0 0
114 2 20.145350331231363 17.048450068840808 1.5639498062922783 0 0 0
314 2 20.145350417639253 17.048449557563135 4.6608500500493415 0 0 0
96 3 23.24224940062879 13.951550131897536 1.563950009008394 0 0 0
296 4 23.242249840957623 13.951550157314074 4.660850237228401 0 0 0
115 4 21.693799997839697 15.500000013151972 0.015500128184299255 0 0 0
116 4 23.24224968296652 17.048449893208605 1.5639500540963867 0 0 0
315 4 21.69379996309771 15.499999902696404 3.112400067502813 0 0 0
316 5 23.24224969710184 17.048449719442512 4.660850026618756 0 0 0
515 4 21.693800035601615 15.499999619793606 6.209299844037607 0 0 0
135 2 21.69379990790714 18.59690018983547 0.01550061903853748 0 0 0
335 2 21.69379984414769 18.59690014716065 3.112399509682642 0 0 0
535 3 21.693799802270345 18.59689976184688 6.209299864982316 0 0 0
117 3 24.790699884495858 15.50000007733092 0.01550029580832562 0 0 0
317 3 24.79069975134996 15.500000013418402 3.112399881337825 0 0 0
517 2 24.79069987403384 15.499999693911413 6.209300229679776 0 0 0
137 1 24.790699830551606 18.596900096088127 0.01550057153667091 0 0 0
337 3 24.79069983786602 18.59690001315337 3.112399599521198 0 0 0
537 4 24.79070032127765 18.59689991665134 6.2093001315813785 0 0 0
98 2 26.339149968770304 13.951550001237134 1.5639500313776669 0 0 0
298 3 26.339149492042385 13.951549824070977 4.6608502931025555 0 0 0
118 2 26.339149862378136 17.048450206526756 1.5639498154239773 0 0 0
318 5 26.33914991209455 17.04845021503484 4.660850351530495 0 0 0
100 4 29.436050106545043 13.951550002024803 1.56394996115807 0 0 0
300 5 29.436050200107594 13.951550217361476 4.6608499470210765 0 0 0
119 3 27.887600340235405 15.499999717200183 0.015500041736834289 0 0 0
120 1 29.436050018185842 17.048450121210045 1.5639497529076174 0 0 0
319 5 27.887600174922202 15.499999857783184 3.112399666747694 0 0 0
320 2 29.436050100666172 17.04844988700634 4.6608501307695915 0 0 0
519 5 27.887599873492892 15.500000176932543 6.2093002855893475 0 0 0
139 4 27.887600191746508 18.59690011630238 0.015500042088602275 0 0 0
339 5 27.887599940640847 18.596900100721122 3.112399993094551 0 0 0
539 2 27.887599743843527 18.596899925715224 6.209300168726645 0 0 0
122 3 1.5639501304734158 20.14535014313396 1.5639501242221314 0 0 0
322 2 1.5639506509374783 20.14535014277304 4.660849808677378 0 0 0
141 4 30.984499681452135 21.69379997479427 30.984499819743906 -1 0 -1
142 1 1.5639497541793448 23.24225004312555 1.5639502202458753 0 0 0
341 1 30.984499830045802 21.693800349725073 3.112399906526811 -1 0 0
342 3 1.5639503063667757 23.24224987578481 4.660849645246099 0 0 0
541 5 30.98449998130555 21.693800009415906 6.209299974712169 -1 0 0
161 2 30.984499851380257 24.790700239378513 30.98449993896739 -1 0 -1
361 4 30.984499790611228 24.79070003861025 3.112399792346738 -1 0 0
561 3 30.984499759597746 24.79070026828006 6.209300031640803 -1 0 0
124 2 4.660849633859247 20.145349783127624 1.5639504147418586 0 0 0
324 5 4.660849931272532 20.145350108906804 4.660850165664482 0 0 0
143 1 3.1124000262300937 21.6937997631665 0.015500041271351371 0 0 0
144 1 4.660849593088317 23.242249978877147 1.563950314254819 0 0 0
343 4 3.11240006543854 21.69380012554309 3.1123999283728274 0 0 0
344 2 4.6608496551154746 23.24224947688235 4.6608502477315 0 0 0
543 4 3.112400235390548 21.69380009835573 6.209300245571858 0 0 0
163 3 3.1123997345700327 24.79070047313672 30.984499988325812 0 0 -1
363 2 3.1123998941079356 24.790699997062184 3.1123998153425814 0 0 0
563 3 3.112400188521373 24.79069984921282 6.209300560835545 0 0 0
145 5 6.2092999307603005 21.693799986673373 0.015500006352070068 0 0 0
345 5 6.209300204009333 21.693799931783385 3.112400199386625 0 0 0
545 4 6.209299942379353 21.693800149794896 6.20930005342261 0 0 0
165 5 6.209300147936602 24.790700036335934 0.015500255450358973 0 0 0
365 3 6.209300213176334 24.79069978193823 3.1123998082814883 0 0 0
565 5 6.209299854809307 24.790699806040035 6.209300132837952 0 0 0
126 1 7.757750110111831 20.145349692420908 1.5639502385445287 0 0 0
326 4 7.757749699232118 20.145349896036564 4.6608501542323815 0 0 0
146 4 7.757750137183861 23.242250164018763 1.5639501768039819 0 0 0
346 1 7.757749933733767 23.24224961103053 4.660850042430373 0 0 0
128 2 10.854650001257742 20.145349812573464 1.563949718147091 0 0 0
328 1 10.854649730629802 20.145349799049118 4.6608500778263915 0 0 0
147 5 9.30620017336344 21.6938002027243 30.984499973917334 0 0 -1
148 3 10.854650100013709 23.242250240501928 1.5639497893481247 0 0 0
347 2 9.306199614036132 21.693799882088964 3.112399913967875 0 0 0
348 1 10.854650177062398 23.24225047439339 4.660850065936402 0 0 0
547 3 9.306199652783736 21.69379983438681 6.209299886984406 0 0 0
167 3 9.306200177866284 24.790699843302615 30.98449980776493 0 0 -1
367 2 9.306199809834503 24.790699974085772 3.112399867935382 0 0 0
567 2 9.306200200791043 24.790700222270686 6.209300127149754 0 0 0
149 2 12.403099831930563 21.693800222298997 30.984499698212048 0 0 -1
349 5 12.40310003123602 21.69380018196174 3.112399927633798 0 0 0
549 3 12.403100000266816 21.693800124104218 6.209299937515863 0 0 0
169 4 12.403100011867235 24.79070011493015 30.98449940121439 0 0 -1
369 1 12.40310004185437 24.790700090733782 3.112400288401018 0 0 0
569 4 12.403099728516555 24.79070011576697 6.2092999427702535 0 0 0
130 1 13.951550292739402 20.145350000304063 1.5639495915393633 0 0 0
330 3 13.951550429182081 20.14535010785682 4.660850285802386 0 0 0
150 5 13.951550008119476 23.242250235592245 1.5639499272037478 0 0 0
350 1 13.951550444339459 23.242250327427435 4.660850092987655 0 0 0
132 4 17.048449878355683 20.145349855126035 1.563949806401546 0 0 0
332 5 17.048449863508406 20.145350028034738 4.66085002142235 0 0 0
151 2 15.500000286787479 21.693800165053016 30.984499933122443 0 0 -1
152 3 17.048449770235298 23.242250003994226 1.5639501141739098 0 0 0
351 1 15.500000154020736 21.693799841480224 3.112399881394344 0 0 0
352 5 17.048449608579105 23.242250100264446 4.6608499312886735 0 0 0
551 4 15.499999753431846 21.69380005471403 6.209299866869389 0 0 0
171 3 15.49999972572319 24.79069986627701 30.984499411258216 0 0 -1
371 4 15.499999907503469 24.79070000504893 3.112400072097227 0 0 0
571 5 15.499999963555661 24.790699831152665 6.209299989786439 0 0 0
153 5 18.59689988267041 21.693799808643227 30.984499974967537 0 0 -1
353 5 18.596900040714733 21.693799789729454 3.1123998396867933 0 0 0
553 2 18.596900136455854 21.69379993011511 6.209299946583327 0 0 0
173 1 18.596899813123056 24.790699815474404 30.984499744691828 0 0 -1
373 1 18.59690007558541 24.790699905219654 3.1124000082942787 0 0 0
573 3 18.59689981883034 24.79070018329547 6.209300055602414 0 0 0
134 4 20.145350331030222 20.145350039086107 1.563949744975764 0 0 0
334 2 20.145350186199597 20.14535020885117 4.660849880034756 0 0 0
154 1 20.145350670945742 23.242249765187147 1.5639500233722055 0 0 0
354 3 20.14535025068942 23.24224982954973 4.660849701378445 0 0 0
136 4 23.24224967391882 20.145350157003396 1.5639499667176449 0 0 0
336 3 23.24224994904484 20.1453499660686 4.660849866173652 0 0 0
155 4 21.693800084540218 21.693799754168253 0.015500597519160272 0 0 0
156 4 23.242249609427684 23.242249910398332 1.5639500591072673 0 0 0
355 4 21.693799997772473 21.693799839046786 3.1123995178044592 0 0 0
356 2 23.242249706907817 23.242249946831887 4.660849470694443 0 0 0
555 2 21.693799924768104 21.693799995691172 6.209299734931446 0 0 0
175 2 21.69380017721494 24.79069979246305 0.015500259033356483 0 0 0
375 4 21.69380006230432 24.79069979664578 3.1123998525346304 0 0 0
575 3 21.69380019137865 24.79069993115481 6.209300003373314 0 0 0
157 5 24.790699669040475 21.693799960061874 0.015500350980760143 0 0 0
357 2 24.790699603869506 21.693799869244074 3.1123996404334457 0 0 0
557 3 24.79070010653478 21.693799980675617 6.209299983896053 0 0 0
177 1 24.790699841480617 24.79069985210366 0.015500098568358746 0 0 0
377 2 24.790699752501475 24.790699950183484 3.11239991071726 0 0 0
577 3 24.79070003030216 24.790700191812988 6.209300149522478 0 0 0
138 1 26.33915021959553 20.145350138421065 1.5639495108845536 0 0 0
338 2 26.339149810721434 20.14534989158551 4.660850409275789 0 0 0
158 3 26.33915012885228 23.24224981389276 1.563949942750837 0 0 0
358 3 26.33915023242156 23.242249772200267 4.660849902496691 0 0 0
140 1 29.436049859324005 20.14535041261571 1.5639492310228165 0 0 0
340 1 29.436049771827165 20.145350172613576 4.660850156184091 0 0 0
159 4 27.887600440516028 21.6938000459728 30.984499973720613 0 0 -1
160 4 29.436050183135094 23.242249871691563 1.5639498873809086 0 0 0
359 2 27.887600196659033 21.693800010041638 3.1123998315274966 0 0 0
360 2 29.436050028813316 23.24225016875301 4.660849739723915 0 0 0
559 4 27.887600113347517 21.69380006854421 6.209300095289457 0 0 0
179 3 27.88760053550645 24.79069979241467 30.984499780319222 0 0 -1
379 2 27.88760046329531 24.790700107777322 3.112400119963735 0 0 0
579 5 27.887600197967284 24.790700190491947 6.209299712804264 0 0 0
162 4 1.5639497948576904 26.33915011041675 1.5639501985886723 0 0 0
362 5 1.5639499585825998 26.339150052949478 4.660849640546071 0 0 0
181 4 0.015500331966951705 27.887599791052917 30.984499817847933 0 0 -1
182 1 1.5639500310786403 29.43604973381015 1.5639504811584353 0 0 0
381 2 0.015500053144207491 27.887599819289864 3.1123997781144994 0 0 0
382 3 1.5639502315073976 29.436050015708194 4.660849423600307 0 0 0
581 1 30.984499773342023 27.887599612423188 6.209300096699578 -1 0 0
164 5 4.660849945874793 26.339150272643963 1.5639503108393418 0 0 0
364 3 4.660849813473502 26.339150573420387 4.660849561705745 0 0 0