LAMMPS data file via write_data, version 22 Jul 2025, timestep = 0, units = metal

9826 atoms
5 atom types

0 60.86 xlo xhi
0 60.86 ylo yhi
0 60.86 zlo zhi

Masses

1 26.98154
2 47.9
3 95.94
4 51.996
5 183.5

Atoms # atomic

1 3 0 0 0 0 0 0
579 2 0 0 3.58 0 0 0
1157 3 0 0 7.16 0 0 0
1735 1 0 0 10.74 0 0 0
35 5 0 3.58 0 0 0 0
613 2 0 3.58 3.58 0 0 0
1191 3 0 3.58 7.16 0 0 0
1769 1 0 3.58 10.74 0 0 0
69 5 0 7.16 0 0 0 0
647 5 0 7.16 3.58 0 0 0
1225 3 0 7.16 7.16 0 0 0
1803 2 0 7.16 10.74 0 0 0
103 2 0 10.74 0 0 0 0
681 3 0 10.74 3.58 0 0 0
1259 4 0 10.74 7.16 0 0 0
1837 4 0 10.74 10.74 0 0 0
137 3 0 14.32 0 0 0 0
715 4 0 14.32 3.58 0 0 0
1293 3 0 14.32 7.16 0 0 0
1871 5 0 14.32 10.74 0 0 0
3 4 3.58 0 0 0 0 0
581 5 3.58 0 3.58 0 0 0
1159 2 3.58 0 7.16 0 0 0
1737 2 3.58 0 10.74 0 0 0
37 2 3.58 3.58 0 0 0 0
615 2 3.58 3.58 3.58 0 0 0
1193 1 3.58 3.58 7.16 0 0 0
1771 4 3.58 3.58 10.74 0 0 0
71 4 3.58 7.16 0 0 0 0
649 3 3.58 7.16 3.58 0 0 0
1227 4 3.58 7.16 7.16 0 0 0
1805 4 3.58 7.16 10.74 0 0 0
105 1 3.58 10.74 0 0 0 0
683 4 3.58 10.74 3.58 0 0 0
1261 2 3.58 10.74 7.16 0 0 0
1839 5 3.58 10.74 10.74 0 0 0
139 5 3.58 14.32 0 0 0 0
717 1 3.58 14.32 3.58 0 0 0
1295 5 3.58 14.32 7.16 0 0 0
1873 5 3.58 14.32 10.74 0 0 0
5 1 7.16 0 0 0 0 0
583 1 7.16 0 3.58 0 0 0
1161 2 7.16 0 7.16 0 0 0
1739 2 7.16 0 10.74 0 0 0
39 1 7.16 3.58 0 0 0 0
617 5 7.16 3.58 3.58 0 0 0
1195 4 7.16 3.58 7.16 0 0 0
1773 4 7.16 3.58 10.74 0 0 0
73 2 7.16 7.16 0 0 0 0
651 5 7.16 7.16 3.58 0 0 0
1229 4 7.16 7.16 7.16 0 0 0
1807 2 7.16 7.16 10.74 0 0 0
107 2 7.16 10.74 0 0 0 0
685 4 7.16 10.74 3.58 0 0 0
1263 5 7.16 10.74 7.16 0 0 0
1841 5 7.16 10.74 10.74 0 0 0
141 2 7.16 14.32 0 0 0 0
719 3 7.16 14.32 3.58 0 0 0
1297 1 7.16 14.32 7.16 0 0 0
1875 4 7.16 14.32 10.74 0 0 0
7 5 10.74 0 0 0 0 0
585 3 10.74 0 3.58 0 0 0
1163 4 10.74 0 7.16 0 0 0
1741 1 10.74 0 10.74 0 0 0
41 2 10.74 3.58 0 0 0 0
619 2 10.74 3.58 3.58 0 0 0
1197 5 10.74 3.58 7.16 0 0 0
1775 5 10.74 3.58 10.74 0 0 0
75 4 10.74 7.16 0 0 0 0
653 3 10.74 7.16 3.58 0 0 0
1231 1 10.74 7.16 7.16 0 0 0
1809 4 10.74 7.16 10.74 0 0 0
109 4 10.74 10.74 0 0 0 0
687 3 10.74 10.74 3.58 0 0 0
1265 5 10.74 10.74 7.16 0 0 0
1843 5 10.74 10.74 10.74 0 0 0
143 4 10.74 14.32 0 0 0 0
721 5 10.74 14.32 3.58 0 0 0
1299 4 10.74 14.32 7.16 0 0 0
1877 1 10.74 14.32 10.74 0 0 0
9 5 14.32 0 0 0 0 0
587 2 14.32 0 3.58 0 0 0
1165 1 14.32 0 7.16 0 0 0
1743 4 14.32 0 10.74 0 0 0
43 5 14.32 3.58 0 0 0 0
621 1 14.32 3.58 3.58 0 0 0
1199 2 14.32 3.58 7.16 0 0 0
1777 4 14.32 3.58 10.74 0 0 0
77 1 14.32 7.16 0 0 0 0
655 4 14.32 7.16 3.58 0 0 0
1233 2 14.32 7.16 7.16 0 0 0
1811 4 14.32 7.16 10.74 0 0 0
111 1 14.32 10.74 0 0 0 0
689 5 14.32 10.74 3.58 0 0 0
1267 5 14.32 10.74 7.16 0 0 0
1845 3 14.32 10.74 10.74 0 0 0
145 2 14.32 14.32 0 0 0 0
723 4 14.32 14.32 3.58 0 0 0
1301 3 14.32 14.32 7.16 0 0 0
1879 4 14.32 14.32 10.74 0 0 0
11 1 17.9 0 0 0 0 0
589 4 17.9 0 3.58 0 0 0
1167 2 17.9 0 7.16 0 0 0
1745 3 17.9 0 10.74 0 0 0
45 1 17.9 3.58 0 0 0 0
623 2 17.9 3.58 3.58 0 0 0
1201 2 17.9 3.58 7.16 0 0 0
1779 2 17.9 3.58 10.74 0 0 0
79 4 17.9 7.16 0 0 0 0
657 4 17.9 7.16 3.58 0 0 0
1235 4 17.9 7.16 7.16 0 0 0
1813 1 17.9 7.16 10.74 0 0 0
113 3 17.9 10.74 0 0 0 0
691 1 17.9 10.74 3.58 0 0 0
1269 5 17.9 10.74 7.16 0 0 0
1847 2 17.9 10.74 10.74 0 0 0
147 4 17.9 14.32 0 0 0 0
725 4 17.9 14.32 3.58 0 0 0
1303 2 17.9 14.32 7.16 0 0 0
1881 4 17.9 14.32 10.74 0 0 0
13 4 21.48 0 0 0 0 0
591 3 21.48 0 3.58 0 0 0
1169 2 21.48 0 7.16 0 0 0
1747 2 21.48 0 10.74 0 0 0
47 5 21.48 3.58 0 0 0 0
625 5 21.48 3.58 3.58 0 0 0
1203 4 21.48 3.58 7.16 0 0 0
1781 3 21.48 3.58 10.74 0 0 0
81 1 21.48 7.16 0 0 0 0
659 5 21.48 7.16 3.58 0 0 0
1237 2 21.48 7.16 7.16 0 0 0
1815 2 21.48 7.16 10.74 0 0 0
115 1 21.48 10.74 0 0 0 0
693 4 21.48 10.74 3.58 0 0 0
1271 1 21.48 10.74 7.16 0 0 0
1849 3 21.48 10.74 10.74 0 0 0
149 2 21.48 14.32 0 0 0 0
727 5 21.48 14.32 3.58 0 0 0
1305 1 21.48 14.32 7.16 0 0 0
1883 5 21.48 14.32 10.74 0 0 0
15 5 25.060000000000002 0 0 0 0 0
593 4 25.060000000000002 0 3.58 0 0 0
1171 3 25.060000000000002 0 7.16 0 0 0
1749 3 25.060000000000002 0 10.74 0 0 0
49 5 25.060000000000002 3.58 0 0 0 0
627 3 25.060000000000002 3.58 3.58 0 0 0
1205 2 25.060000000000002 3.58 7.16 0 0 0
1783 4 25.060000000000002 3.58 10.74 0 0 0
83 1 25.060000000000002 7.16 0 0 0 0
661 5 25.060000000000002 7.16 3.58 0 0 0
1239 1 25.060000000000002 7.16 7.16 0 0 0
1817 4 25.060000000000002 7.16 10.74 0 0 0
117 4 25.060000000000002 10.74 0 0 0 0
695 3 25.060000000000002 10.74 3.58 0 0 0
1273 4 25.060000000000002 10.74 7.16 0 0 0
1851 2 25.060000000000002 10.74 10.74 0 0 0
151 2 25.060000000000002 14.32 0 0 0 0
729 1 25.060000000000002 14.32 3.58 0 0 0
1307 2 25.060000000000002 14.32 7.16 0 0 0
1885 4 25.060000000000002 14.32 10.74 0 0 0
17 2 28.64 0 0 0 0 0
595 5 28.64 0 3.58 0 0 0
1173 1 28.64 0 7.16 0 0 0
1751 5 28.64 0 10.74 0 0 0
51 4 28.64 3.58 0 0 0 0
629 3 28.64 3.58 3.58 0 0 0
1207 1 28.64 3.58 7.16 0 0 0
1785 3 28.64 3.58 10.74 0 0 0
85 2 28.64 7.16 0 0 0 0
663 3 28.64 7.16 3.58 0 0 0
1241 5 28.64 7.16 7.16 0 0 0
1819 1 28.64 7.16 10.74 0 0 0
119 3 28.64 10.74 0 0 0 0
697 1 28.64 10.74 3.58 0 0 0
1275 1 28.64 10.74 7.16 0 0 0
1853 2 28.64 10.74 10.74 0 0 0
153 4 28.64 14.32 0 0 0 0
731 5 28.64 14.32 3.58 0 0 0
1309 2 28.64 14.32 7.16 0 0 0
1887 5 28.64 14.32 10.74 0 0 0
2 3 1.79 1.79 1.79 0 0 0
580 3 1.79 1.79 5.37 0 0 0
1158 2 1.79 1.79 8.95 0 0 0
36 4 1.79 5.37 1.79 0 0 0
614 3 1.79 5.37 5.37 0 0 0
1192 5 1.79 5.37 8.95 0 0 0
70 4 1.79 8.95 1.79 0 0 0
648 4 1.79 8.95 5.37 0 0 0
1226 2 1.79 8.95 8.95 0 0 0
104 2 1.79 12.530000000000001 1.79 0 0 0
682 2 1.79 12.530000000000001 5.37 0 0 0
1260 4 1.79 12.530000000000001 8.95 0 0 0
4 4 5.37 1.79 1.79 0 0 0
582 5 5.37 1.79 5.37 0 0 0
1160 5 5.37 1.79 8.95 0 0 0
38 3 5.37 5.37 1.79 0 0 0
616 1 5.37 5.37 5.37 0 0 0
1194 1 5.37 5.37 8.95 0 0 0
72 3 5.37 8.95 1.79 0 0 0
650 1 5.37 8.95 5.37 0 0 0
1228 5 5.37 8.95 8.95 0 0 0
106 3 5.37 12.530000000000001 1.79 0 0 0
684 1 5.37 12.530000000000001 5.37 0 0 0
1262 1 5.37 12.530000000000001 8.95 0 0 0
6 1 8.95 1.79 1.79 0 0 0
584 3 8.95 1.79 5.37 0 0 0
1162 2 8.95 1.79 8.95 0 0 0
40 3 8.95 5.37 1.79 0 0 0
618 5 8.95 5.37 5.37 0 0 0
1196 3 8.95 5.37 8.95 0 0 0
74 3 8.95 8.95 1.79 0 0 0
652 3 8.95 8.95 5.37 0 0 0
1230 4 8.95 8.95 8.95 0 0 0
108 5 8.95 12.530000000000001 1.79 0 0 0
686 3 8.95 12.530000000000001 5.37 0 0 0
1264 2 8.95 12.530000000000001 8.95 0 0 0
8 1 12.530000000000001 1.79 1.79 0 0 0
586 2 12.530000000000001 1.79 5.37 0 0 0
1164 1 12.530000000000001 1.79 8.95 0 0 0
42 5 12.530000000000001 5.37 1.79 0 0 0
620 5 12.530000000000001 5.37 5.37 0 0 0
1198 1 12.530000000000001 5.37 8.95 0 0 0
76 2 12.530000000000001 8.95 1.79 0 0 0
654 1 12.530000000000001 8.95 5.37 0 0 0
1232 3 12.530000000000001 8.95 8.95 0 0 0
110 5 12.530000000000001 12.530000000000001 1.79 0 0 0
688 4 12.530000000000001 12.530000000000001 5.37 0 0 0
1266 4 12.530000000000001 12.530000000000001 8.95 0 0 0
10 3 16.11 1.79 1.79 0 0 0
588 5 16.11 1.79 5.37 0 0 0
1166 5 16.11 1.79 8.95 0 0 0
44 1 16.11 5.37 1.79 0 0 0
622 4 16.11 5.37 5.37 0 0 0
1200 3 16.11 5.37 8.95 0 0 0
78 5 16.11 8.95 1.79 0 0 0
656 3 16.11 8.95 5.37 0 0 0
1234 2 16.11 8.95 8.95 0 0 0
112 3 16.11 12.530000000000001 1.79 0 0 0
690 2 16.11 12.530000000000001 5.37 0 0 0
1268 5 16.11 12.530000000000001 8.95 0 0 0
12 2 19.69 1.79 1.79 0 0 0
590 1 19.69 1.79 5.37 0 0 0
1168 1 19.69 1.79 8.95 0 0 0
46 2 19.69 5.37 1.79 0 0 0
624 4 19.69 5.37 5.37 0 0 0
1202 2 19.69 5.37 8.95 0 0 0
80 2 19.69 8.95 1.79 0 0 0
658 1 19.69 8.95 5.37 0 0 0
1236 3 19.69 8.95 8.95 0 0 0
114 3 19.69 12.530000000000001 1.79 0 0 0
692 5 19.69 12.530000000000001 5.37 0 0 0
1270 5 19.69 12.530000000000001 8.95 0 0 0
14 5 23.27 1.79 1.79 0 0 0
592 3 23.27 1.79 5.37 0 0 0
1170 5 23.27 1.79 8.95 0 0 0
48 3 23.27 5.37 1.79 0 0 0
626 2 23.27 5.37 5.37 0 0 0
1204 2 23.27 5.37 8.95 0 0 0
82 1 23.27 8.95 1.79 0 0 0
660 3 23.27 8.95 5.37 0 0 0
1238 1 23.27 8.95 8.95 0 0 0
116 1 23.27 12.530000000000001 1.79 0 0 0
694 5 23.27 12.530000000000001 5.37 0 0 0
1272 3 23.27 12.530000000000001 8.95 0 0 0
16 1 26.85 1.79 1.79 0 0 0
594 3 26.85 1.79 5.37 0 0 0
1172 1 26.85 1.79 8.95 0 0 0
50 1 26.85 5.37 1.79 0 0 0
628 5 26.85 5.37 5.37 0 0 0
1206 1 26.85 5.37 8.95 0 0 0
84 5 26.85 8.95 1.79 0 0 0
662 1 26.85 8.95 5.37 0 0 0
1240 5 26.85 8.95 8.95 0 0 0
118 2 26.85 12.530000000000001 1.79 0 0 0
696 2 26.85 12.530000000000001 5.37 0 0 0
1274 4 26.85 12.530000000000001 8.95 0 0 0
2313 2 0 0 14.32 0 0 0
2891 5 0 0 17.9 0 0 0
3469 1 0 0 21.48 0 0 0
2347 1 0 3.58 14.32 0 0 0
2925 2 0 3.58 17.9 0 0 0
3503 1 0 3.58 21.48 0 0 0
2381 4 0 7.16 14.32 0 0 0
2959 3 0 7.16 17.9 0 0 0
3537 3 0 7.16 21.48 0 0 0
2415 2 0 10.74 14.32 0 0 0
2993 3 0 10.74 17.9 0 0 0
3571 4 0 10.74 21.48 0 0 0
2449 2 0 14.32 14.32 0 0 0
3027 5 0 14.32 17.9 0 0 0
3605 1 0 14.32 21.48 0 0 0
2315 1 3.58 0 14.32 0 0 0
2893 3 3.58 0 17.9 0 0 0
3471 3 3.58 0 21.48 0 0 0
2349 4 3.58 3.58 14.32 0 0 0
2927 3 3.58 3.58 17.9 0 0 0
3505 4 3.58 3.58 21.48 0 0 0
2383 3 3.58 7.16 14.32 0 0 0
2961 5 3.58 7.16 17.9 0 0 0
3539 1 3.58 7.16 21.48 0 0 0
2417 4 3.58 10.74 14.32 0 0 0
2995 5 3.58 10.74 17.9 0 0 0
3573 1 3.58 10.74 21.48 0 0 0
2451 5 3.58 14.32 14.32 0 0 0
3029 4 3.58 14.32 17.9 0 0 0
3607 4 3.58 14.32 21.48 0 0 0
2317 4 7.16 0 14.32 0 0 0
2895 3 7.16 0 17.9 0 0 0
3473 3 7.16 0 21.48 0 0 0
2351 4 7.16 3.58 14.32 0 0 0
2929 5 7.16 3.58 17.9 0 0 0
3507 3 7.16 3.58 21.48 0 0 0
2385 1 7.16 7.16 14.32 0 0 0
2963 5 7.16 7.16 17.9 0 0 0
3541 5 7.16 7.16 21.48 0 0 0
2419 3 7.16 10.74 14.32 0 0 0
2997 4 7.16 10.74 17.9 0 0 0
3575 3 7.16 10.74 21.48 0 0 0
2453 2 7.16 14.32 14.32 0 0 0
3031 5 7.16 14.32 17.9 0 0 0
3609 1 7.16 14.32 21.48 0 0 0
2319 5 10.74 0 14.32 0 0 0
2897 2 10.74 0 17.9 0 0 0
3475 3 10.74 0 21.48 0 0 0
2353 4 10.74 3.58 14.32 0 0 0
2931 5 10.74 3.58 17.9 0 0 0
3509 3 10.74 3.58 21.48 0 0 0
2387 4 10.74 7.16 14.32 0 0 0
2965 2 10.74 7.16 17.9 0 0 0
3543 1 10.74 7.16 21.48 0 0 0
2421 3 10.74 10.74 14.32 0 0 0
2999 5 10.74 10.74 17.9 0 0 0
3577 2 10.74 10.74 21.48 0 0 0
2455 3 10.74 14.32 14.32 0 0 0
3033 1 10.74 14.32 17.9 0 0 0
3611 5 10.74 14.32 21.48 0 0 0
2321 1 14.32 0 14.32 0 0 0
2899 3 14.32 0 17.9 0 0 0
3477 5 14.32 0 21.48 0 0 0
2355 1 14.32 3.58 14.32 0 0 0
2933 3 14.32 3.58 17.9 0 0 0
3511 5 14.32 3.58 21.48 0 0 0
2389 5 14.32 7.16 14.32 0 0 0
2967 3 14.32 7.16 17.9 0 0 0
3545 5 14.32 7.16 21.48 0 0 0
2423 1 14.32 10.74 14.32 0 0 0
3001 4 14.32 10.74 17.9 0 0 0
3579 3 14.32 10.74 21.48 0 0 0
2457 3 14.32 14.32 14.32 0 0 0
3035 5 14.32 14.32 17.9 0 0 0
3613 4 14.32 14.32 21.48 0 0 0
2323 2 17.9 0 14.32 0 0 0
2901 1 17.9 0 17.9 0 0 0
3479 2 17.9 0 21.48 0 0 0
2357 3 17.9 3.58 14.32 0 0 0
2935 5 17.9 3.58 17.9 0 0 0
3513 1 17.9 3.58 21.48 0 0 0
2391 2 17.9 7.16 14.32 0 0 0
2969 1 17.9 7.16 17.9 0 0 0
3547 5 17.9 7.16 21.48 0 0 0
2425 1 17.9 10.74 14.32 0 0 0
3003 4 17.9 10.74 17.9 0 0 0
3581 3 17.9 10.74 21.48 0 0 0
2459 2 17.9 14.32 14.32 0 0 0
3037 3 17.9 14.32 17.9 0 0 0
3615 5 17.9 14.32 21.48 0 0 0
2325 5 21.48 0 14.32 0 0 0
2903 1 21.48 0 17.9 0 0 0
3481 3 21.48 0 21.48 0 0 0
2359 5 21.48 3.58 14.32 0 0 0
2937 2 21.48 3.58 17.9 0 0 0
3515 5 21.48 3.58 21.48 0 0 0
2393 5 21.48 7.16 14.32 0 0 0
2971 3 21.48 7.16 17.9 0 0 0
3549 2 21.48 7.16 21.48 0 0 0
2427 4 21.48 10.74 14.32 0 0 0
3005 5 21.48 10.74 17.9 0 0 0
3583 5 21.48 10.74 21.48 0 0 0
2461 1 21.48 14.32 14.32 0 0 0
3039 5 21.48 14.32 17.9 0 0 0
3617 3 21.48 14.32 21.48 0 0 0
2327 5 25.060000000000002 0 14.32 0 0 0
2905 3 25.060000000000002 0 17.9 0 0 0
3483 1 25.060000000000002 0 21.48 0 0 0
2361 1 25.060000000000002 3.58 14.32 0 0 0
2939 1 25.060000000000002 3.58 17.9 0 0 0
3517 2 25.060000000000002 3.58 21.48 0 0 0
2395 2 25.060000000000002 7.16 14.32 0 0 0
2973 1 25.060000000000002 7.16 17.9 0 0 0
3551 2 25.060000000000002 7.16 21.48 0 0 0
2429 3 25.060000000000002 10.74 14.32 0 0 0
3007 3 25.060000000000002 10.74 17.9 0 0 0
3585 4 25.060000000000002 10.74 21.48 0 0 0
2463 1 25.060000000000002 14.32 14.32 0 0 0
3041 4 25.060000000000002 14.32 17.9 0 0 0
3619 1 25.060000000000002 14.32 21.48 0 0 0
2329 2 28.64 0 14.32 0 0 0
2907 5 28.64 0 17.9 0 0 0
3485 3 28.64 0 21.48 0 0 0
2363 5 28.64 3.58 14.32 0 0 0
2941 1 28.64 3.58 17.9 0 0 0
3519 4 28.64 3.58 21.48 0 0 0
2397 5 28.64 7.16 14.32 0 0 0
2975 5 28.64 7.16 17.9 0 0 0
3553 2 28.64 7.16 21.48 0 0 0
2431 3 28.64 10.74 14.32 0 0 0
3009 4 28.64 10.74 17.9 0 0 0
3587 2 28.64 10.74 21.48 0 0 0
2465 4 28.64 14.32 14.32 0 0 0
3043 3 28.64 14.32 17.9 0 0 0
3621 2 28.64 14.32 21.48 0 0 0
1736 1 1.79 1.79 12.530000000000001 0 0 0
2314 3 1.79 1.79 16.11 0 0 0
2892 3 1.79 1.79 19.69 0 0 0
3470 3 1.79 1.79 23.27 0 0 0
1770 3 1.79 5.37 12.530000000000001 0 0 0
2348 5 1.79 5.37 16.11 0 0 0
2926 2 1.79 5.37 19.69 0 0 0
3504 4 1.79 5.37 23.27 0 0 0
1804 2 1.79 8.95 12.530000000000001 0 0 0
2382 4 1.79 8.95 16.11 0 0 0
2960 5 1.79 8.95 19.69 0 0 0
3538 1 1.79 8.95 23.27 0 0 0
1838 4 1.79 12.530000000000001 12.530000000000001 0 0 0
2416 5 1.79 12.530000000000001 16.11 0 0 0
2994 4 1.79 12.530000000000001 19.69 0 0 0
3572 5 1.79 12.530000000000001 23.27 0 0 0
1738 4 5.37 1.79 12.530000000000001 0 0 0
2316 3 5.37 1.79 16.11 0 0 0
2894 4 5.37 1.79 19.69 0 0 0
3472 2 5.37 1.79 23.27 0 0 0
1772 5 5.37 5.37 12.530000000000001 0 0 0
2350 5 5.37 5.37 16.11 0 0 0
2928 2 5.37 5.37 19.69 0 0 0
3506 5 5.37 5.37 23.27 0 0 0
1806 4 5.37 8.95 12.530000000000001 0 0 0
2384 4 5.37 8.95 16.11 0 0 0
2962 4 5.37 8.95 19.69 0 0 0
3540 2 5.37 8.95 23.27 0 0 0
1840 4 5.37 12.530000000000001 12.530000000000001 0 0 0
2418 2 5.37 12.530000000000001 16.11 0 0 0
2996 3 5.37 12.530000000000001 19.69 0 0 0
3574 3 5.37 12.530000000000001 23.27 0 0 0
1740 5 8.95 1.79 12.530000000000001 0 0 0
2318 1 8.95 1.79 16.11 0 0 0
2896 2 8.95 1.79 19.69 0 0 0
3474 5 8.95 1.79 23.27 0 0 0
1774 4 8.95 5.37 12.530000000000001 0 0 0
2352 5 8.95 5.37 16.11 0 0 0
2930 1 8.95 5.37 19.69 0 0 0
3508 5 8.95 5.37 23.27 0 0 0
1808 3 8.95 8.95 12.530000000000001 0 0 0
2386 2 8.95 8.95 16.11 0 0 0
2964 4 8.95 8.95 19.69 0 0 0
3542 5 8.95 8.95 23.27 0 0 0
1842 4 8.95 12.530000000000001 12.530000000000001 0 0 0
2420 1 8.95 12.530000000000001 16.11 0 0 0
2998 5 8.95 12.530000000000001 19.69 0 0 0
3576 1 8.95 12.530000000000001 23.27 0 0 0
1742 4 12.530000000000001 1.79 12.530000000000001 0 0 0
2320 1 12.530000000000001 1.79 16.11 0 0 0
2898 4 12.530000000000001 1.79 19.69 0 0 0
3476 4 12.530000000000001 1.79 23.27 0 0 0
1776 2 12.530000000000001 5.37 12.530000000000001 0 0 0
2354 2 12.530000000000001 5.37 16.11 0 0 0
2932 1 12.530000000000001 5.37 19.69 0 0 0
3510 5 12.530000000000001 5.37 23.27 0 0 0
1810 4 12.530000000000001 8.95 12.530000000000001 0 0 0
2388 4 12.530000000000001 8.95 16.11 0 0 0
2966 1 12.530000000000001 8.95 19.69 0 0 0
3544 2 12.530000000000001 8.95 23.27 0 0 0
1844 2 12.530000000000001 12.530000000000001 12.530000000000001 0 0 0
2422 5 12.530000000000001 12.530000000000001 16.11 0 0 0
3000 5 12.530000000000001 12.530000000000001 19.69 0 0 0
3578 5 12.530000000000001 12.530000000000001 23.27 0 0 0
1744 2 16.11 1.79 12.530000000000001 0 0 0
2322 3 16.11 1.79 16.11 0 0 0
2900 1 16.11 1.79 19.69 0 0 0
3478 4 16.11 1.79 23.27 0 0 0
1778 2 16.11 5.37 12.530000000000001 0 0 0
2356 4 16.11 5.37 16.11 0 0 0
2934 5 16.11 5.37 19.69 0 0 0
3512 3 16.11 5.37 23.27 0 0 0
1812 4 16.11 8.95 12.530000000000001 0 0 0
2390 5 16.11 8.95 16.11 0 0 0
2968 2 16.11 8.95 19.69 0 0 0
3546 3 16.11 8.95 23.27 0 0 0
1846 5 16.11 12.530000000000001 12.530000000000001 0 0 0
2424 4 16.11 12.530000000000001 16.11 0 0 0
3002 1 16.11 12.530000000000001 19.69 0 0 0
3580 1 16.11 12.530000000000001 23.27 0 0 0
1746 4 19.69 1.79 12.530000000000001 0 0 0
2324 1 19.69 1.79 16.11 0 0 0
2902 5 19.69 1.79 19.69 0 0 0
3480 4 19.69 1.79 23.27 0 0 0
1780 4 19.69 5.37 12.530000000000001 0 0 0
2358 2 19.69 5.37 16.11 0 0 0
2936 4 19.69 5.37 19.69 0 0 0
3514 4 19.69 5.37 23.27 0 0 0
1814 3 19.69 8.95 12.530000000000001 0 0 0
2392 5 19.69 8.95 16.11 0 0 0
2970 4 19.69 8.95 19.69 0 0 0
3548 1 19.69 8.95 23.27 0 0 0
1848 4 19.69 12.530000000000001 12.530000000000001 0 0 0
2426 3 19.69 12.530000000000001 16.11 0 0 0
3004 4 19.69 12.530000000000001 19.69 0 0 0
3582 5 19.69 12.530000000000001 23.27 0 0 0
1748 3 23.27 1.79 12.530000000000001 0 0 0
2326 5 23.27 1.79 16.11 0 0 0
2904 4 23.27 1.79 19.69 0 0 0
3482 5 23.27 1.79 23.27 0 0 0
1782 2 23.27 5.37 12.530000000000001 0 0 0
2360 1 23.27 5.37 16.11 0 0 0
2938 2 23.27 5.37 19.69 0 0 0
3516 2 23.27 5.37 23.27 0 0 0
1816 2 23.27 8.95 12.530000000000001 0 0 0
2394 3 23.27 8.95 16.11 0 0 0
2972 4 23.27 8.95 19.69 0 0 0
3550 4 23.27 8.95 23.27 0 0 0
1850 1 23.27 12.530000000000001 12.530000000000001 0 0 0
2428 3 23.27 12.530000000000001 16.11 0 0 0
3006 1 23.27 12.530000000000001 19.69 0 0 0
3584 5 23.27 12.530000000000001 23.27 0 0 0
1750 4 26.85 1.79 12.530000000000001 0 0 0
2328 4 26.85 1.79 16.11 0 0 0
2906 4 26.85 1.79 19.69 0 0 0
3484 4 26.85 1.79 23.27 0 0 0
1784 5 26.85 5.37 12.530000000000001 0 0 0
2362 5 26.85 5.37 16.11 0 0 0
2940 2 26.85 5.37 19.69 0 0 0
3518 3 26.85 5.37 23.27 0 0 0
1818 1 26.85 8.95 12.530000000000001 0 0 0
2396 1 26.85 8.95 16.11 0 0 0
2974 2 26.85 8.95 19.69 0 0 0
3552 5 26.85 8.95 23.27 0 0 0
1852 5 26.85 12.530000000000001 12.530000000000001 0 0 0
2430 5 26.85 12.530000000000001 16.11 0 0 0
3008 2 26.85 12.530000000000001 19.69 0 0 0
3586 1 26.85 12.530000000000001 23.27 0 0 0
4047 4 0 0 25.060000000000002 0 0 0
4625 1 0 0 28.64 0 0 0
5203 1 0 0 32.22 0 0 0
5781 1 0 0 35.8 0 0 0
4081 3 0 3.58 25.060000000000002 0 0 0
4659 2 0 3.58 28.64 0 0 0
5237 2 0 3.58 32.22 0 0 0
5815 2 0 3.58 35.8 0 0 0
4115 4 0 7.16 25.060000000000002 0 0 0
4693 1 0 7.16 28.64 0 0 0
5271 5 0 7.16 32.22 0 0 0
5849 4 0 7.16 35.8 0 0 0
4149 2 0 10.74 25.060000000000002 0 0 0
4727 2 0 10.74 28.64 0 0 0
5305 5 0 10.74 32.22 0 0 0
5883 2 0 10.74 35.8 0 0 0
4183 3 0 14.32 25.060000000000002 0 0 0
4761 2 0 14.32 28.64 0 0 0
5339 4 0 14.32 32.22 0 0 0
5917 1 0 14.32 35.8 0 0 0
4049 3 3.58 0 25.060000000000002 0 0 0
4627 4 3.58 0 28.64 0 0 0
5205 4 3.58 0 32.22 0 0 0
5783 3 3.58 0 35.8 0 0 0
4083 5 3.58 3.58 25.060000000000002 0 0 0
4661 4 3.58 3.58 28.64 0 0 0
5239 4 3.58 3.58 32.22 0 0 0
5817 2 3.58 3.58 35.8 0 0 0
4117 2 3.58 7.16 25.060000000000002 0 0 0
4695 3 3.58 7.16 28.64 0 0 0
5273 4 3.58 7.16 32.22 0 0 0
5851 2 3.58 7.16 35.8 0 0 0
4151 5 3.58 10.74 25.060000000000002 0 0 0
4729 4 3.58 10.74 28.64 0 0 0
5307 4 3.58 10.74 32.22 0 0 0
5885 2 3.58 10.74 35.8 0 0 0
4185 3 3.58 14.32 25.060000000000002 0 0 0
4763 2 3.58 14.32 28.64 0 0 0
5341 1 3.58 14.32 32.22 0 0 0
5919 5 3.58 14.32 35.8 0 0 0
4051 5 7.16 0 25.060000000000002 0 0 0
4629 2 7.16 0 28.64 0 0 0
5207 3 7.16 0 32.22 0 0 0
5785 4 7.16 0 35.8 0 0 0
4085 2 7.16 3.58 25.060000000000002 0 0 0
4663 3 7.16 3.58 28.64 0 0 0
5241 5 7.16 3.58 32.22 0 0 0
5819 2 7.16 3.58 35.8 0 0 0
4119 1 7.16 7.16 25.060000000000002 0 0 0
4697 1 7.16 7.16 28.64 0 0 0
5275 4 7.16 7.16 32.22 0 0 0
5853 4 7.16 7.16 35.8 0 0 0
4153 4 7.16 10.74 25.060000000000002 0 0 0
4731 2 7.16 10.74 28.64 0 0 0
5309 5 7.16 10.74 32.22 0 0 0
5887 4 7.16 10.74 35.8 0 0 0
4187 2 7.16 14.32 25.060000000000002 0 0 0
4765 5 7.16 14.32 28.64 0 0 0
5343 4 7.16 14.32 32.22 0 0 0
5921 2 7.16 14.32 35.8 0 0 0
4053 5 10.74 0 25.060000000000002 0 0 0
4631 3 10.74 0 28.64 0 0 0
5209 5 10.74 0 32.22 0 0 0
5787 2 10.74 0 35.8 0 0 0
4087 2 10.74 3.58 25.060000000000002 0 0 0
4665 3 10.74 3.58 28.64 0 0 0
5243 4 10.74 3.58 32.22 0 0 0
5821 1 10.74 3.58 35.8 0 0 0
4121 2 10.74 7.16 25.060000000000002 0 0 0
4699 4 10.74 7.16 28.64 0 0 0
5277 5 10.74 7.16 32.22 0 0 0
5855 5 10.74 7.16 35.8 0 0 0
4155 5 10.74 10.74 25.060000000000002 0 0 0
4733 5 10.74 10.74 28.64 0 0 0
5311 5 10.74 10.74 32.22 0 0 0
5889 2 10.74 10.74 35.8 0 0 0
4189 2 10.74 14.32 25.060000000000002 0 0 0
4767 4 10.74 14.32 28.64 0 0 0
5345 5 10.74 14.32 32.22 0 0 0
5923 1 10.74 14.32 35.8 0 0 0
4055 4 14.32 0 25.060000000000002 0 0 0
4633 4 14.32 0 28.64 0 0 0
5211 3 14.32 0 32.22 0 0 0
5789 5 14.32 0 35.8 0 0 0
4089 2 14.32 3.58 25.060000000000002 0 0 0
4667 5 14.32 3.58 28.64 0 0 0
5245 5 14.32 3.58 32.22 0 0 0
5823 5 14.32 3.58 35.8 0 0 0
4123 1 14.32 7.16 25.060000000000002 0 0 0
4701 1 14.32 7.16 28.64 0 0 0
5279 2 14.32 7.16 32.22 0 0 0
5857 4 14.32 7.16 35.8 0 0 0
4157 2 14.32 10.74 25.060000000000002 0 0 0
4735 1 14.32 10.74 28.64 0 0 0
5313 5 14.32 10.74 32.22 0 0 0
5891 3 14.32 10.74 35.8 0 0 0
4191 5 14.32 14.32 25.060000000000002 0 0 0
4769 4 14.32 14.32 28.64 0 0 0
5347 2 14.32 14.32 32.22 0 0 0
5925 5 14.32 14.32 35.8 0 0 0
4057 4 17.9 0 25.060000000000002 0 0 0
4635 4 17.9 0 28.64 0 0 0
5213 5 17.9 0 32.22 0 0 0
5791 3 17.9 0 35.8 0 0 0
4091 1 17.9 3.58 25.060000000000002 0 0 0
4669 4 17.9 3.58 28.64 0 0 0
5247 3 17.9 3.58 32.22 0 0 0
5825 3 17.9 3.58 35.8 0 0 0
4125 1 17.9 7.16 25.060000000000002 0 0 0
4703 1 17.9 7.16 28.64 0 0 0
5281 2 17.9 7.16 32.22 0 0 0
5859 5 17.9 7.16 35.8 0 0 0
4159 3 17.9 10.74 25.060000000000002 0 0 0
4737 2 17.9 10.74 28.64 0 0 0
5315 4 17.9 10.74 32.22 0 0 0
5893 5 17.9 10.74 35.8 0 0 0
4193 2 17.9 14.32 25.060000000000002 0 0 0
4771 2 17.9 14.32 28.64 0 0 0
5349 2 17.9 14.32 32.22 0 0 0
5927 3 17.9 14.32 35.8 0 0 0
4059 4 21.48 0 25.060000000000002 0 0 0
4637 3 21.48 0 28.64 0 0 0
5215 5 21.48 0 32.22 0 0 0
5793 3 21.48 0 35.8 0 0 0
4093 3 21.48 3.58 25.060000000000002 0 0 0
4671 1 21.48 3.58 28.64 0 0 0
5249 1 21.48 3.58 32.22 0 0 0
5827 4 21.48 3.58 35.8 0 0 0
4127 5 21.48 7.16 25.060000000000002 0 0 0
4705 2 21.48 7.16 28.64 0 0 0
5283 3 21.48 7.16 32.22 0 0 0
5861 3 21.48 7.16 35.8 0 0 0
4161 3 21.48 10.74 25.060000000000002 0 0 0
4739 4 21.48 10.74 28.64 0 0 0
5317 1 21.48 10.74 32.22 0 0 0
5895 5 21.48 10.74 35.8 0 0 0
4195 3 21.48 14.32 25.060000000000002 0 0 0
4773 5 21.48 14.32 28.64 0 0 0
5351 2 21.48 14.32 32.22 0 0 0
5929 2 21.48 14.32 35.8 0 0 0
4061 4 25.060000000000002 0 25.060000000000002 0 0 0
4639 5 25.060000000000002 0 28.64 0 0 0
5217 3 25.060000000000002 0 32.22 0 0 0
5795 4 25.060000000000002 0 35.8 0 0 0
4095 3 25.060000000000002 3.58 25.060000000000002 0 0 0
4673 1 25.060000000000002 3.58 28.64 0 0 0
5251 5 25.060000000000002 3.58 32.22 0 0 0
5829 2 25.060000000000002 3.58 35.8 0 0 0
4129 1 25.060000000000002 7.16 25.060000000000002 0 0 0
4707 3 25.060000000000002 7.16 28.64 0 0 0
5285 5 25.060000000000002 7.16 32.22 0 0 0
5863 3 25.060000000000002 7.16 35.8 0 0 0
4163 3 25.060000000000002 10.74 25.060000000000002 0 0 0
4741 4 25.060000000000002 10.74 28.64 0 0 0
5319 1 25.060000000000002 10.74 32.22 0 0 0
5897 3 25.060000000000002 10.74 35.8 0 0 0
4197 1 25.060000000000002 14.32 25.060000000000002 0 0 0
4775 1 25.060000000000002 14.32 28.64 0 0 0
5353 1 25.060000000000002 14.32 32.22 0 0 0
5931 4 25.060000000000002 14.32 35.8 0 0 0
4063 4 28.64 0 25.060000000000002 0 0 0
4641 5 28.64 0 28.64 0 0 0
5219 3 28.64 0 32.22 0 0 0
5797 3 28.64 0 35.8 0 0 0
4097 4 28.64 3.58 25.060000000000002 0 0 0
4675 4 28.64 3.58 28.64 0 0 0
5253 5 28.64 3.58 32.22 0 0 0
5831 1 28.64 3.58 35.8 0 0 0
4131 3 28.64 7.16 25.060000000000002 0 0 0
4709 5 28.64 7.16 28.64 0 0 0
5287 1 28.64 7.16 32.22 0 0 0
5865 4 28.64 7.16 35.8 0 0 0
4165 4 28.64 10.74 25.060000000000002 0 0 0
4743 1 28.64 10.74 28.64 0 0 0
5321 2 28.64 10.74 32.22 0 0 0
5899 3 28.64 10.74 35.8 0 0 0
4199 1 28.64 14.32 25.060000000000002 0 0 0
4777 3 28.64 14.32 28.64 0 0 0
5355 3 28.64 14.32 32.22 0 0 0
5933 1 28.64 14.32 35.8 0 0 0
4048 3 1.79 1.79 26.85 0 0 0
4626 4 1.79 1.79 30.43 0 0 0
5204 4 1.79 1.79 34.01 0 0 0
4082 4 1.79 5.37 26.85 0 0 0
4660 1 1.79 5.37 30.43 0 0 0
5238 4 1.79 5.37 34.01 0 0 0
4116 2 1.79 8.95 26.85 0 0 0
4694 5 1.79 8.95 30.43 0 0 0
5272 4 1.79 8.95 34.01 0 0 0
4150 5 1.79 12.530000000000001 26.85 0 0 0
4728 4 1.79 12.530000000000001 30.43 0 0 0
5306 2 1.79 12.530000000000001 34.01 0 0 0
4050 3 5.37 1.79 26.85 0 0 0
4628 4 5.37 1.79 30.43 0 0 0
5206 2 5.37 1.79 34.01 0 0 0
4084 5 5.37 5.37 26.85 0 0 0
4662 4 5.37 5.37 30.43 0 0 0
5240 4 5.37 5.37 34.01 0 0 0
4118 3 5.37 8.95 26.85 0 0 0
4696 2 5.37 8.95 30.43 0 0 0
5274 3 5.37 8.95 34.01 0 0 0
4152 1 5.37 12.530000000000001 26.85 0 0 0
4730 4 5.37 12.530000000000001 30.43 0 0 0
5308 2 5.37 12.530000000000001 34.01 0 0 0
4052 1 8.95 1.79 26.85 0 0 0
4630 1 8.95 1.79 30.43 0 0 0
5208 4 8.95 1.79 34.01 0 0 0
4086 1 8.95 5.37 26.85 0 0 0
4664 5 8.95 5.37 30.43 0 0 0
5242 5 8.95 5.37 34.01 0 0 0
4120 4 8.95 8.95 26.85 0 0 0
4698 1 8.95 8.95 30.43 0 0 0
5276 4 8.95 8.95 34.01 0 0 0
4154 4 8.95 12.530000000000001 26.85 0 0 0
4732 5 8.95 12.530000000000001 30.43 0 0 0
5310 3 8.95 12.530000000000001 34.01 0 0 0
4054 3 12.530000000000001 1.79 26.85 0 0 0
4632 3 12.530000000000001 1.79 30.43 0 0 0
5210 5 12.530000000000001 1.79 34.01 0 0 0
4088 3 12.530000000000001 5.37 26.85 0 0 0
4666 2 12.530000000000001 5.37 30.43 0 0 0
5244 4 12.530000000000001 5.37 34.01 0 0 0
4122 3 12.530000000000001 8.95 26.85 0 0 0
4700 5 12.530000000000001 8.95 30.43 0 0 0
5278 4 12.530000000000001 8.95 34.01 0 0 0
4156 1 12.530000000000001 12.530000000000001 26.85 0 0 0
4734 5 12.530000000000001 12.530000000000001 30.43 0 0 0
5312 4 12.530000000000001 12.530000000000001 34.01 0 0 0
4056 4 16.11 1.79 26.85 0 0 0
4634 5 16.11 1.79 30.43 0 0 0
5212 2 16.11 1.79 34.01 0 0 0
4090 1 16.11 5.37 26.85 0 0 0
4668 4 16.11 5.37 30.43 0 0 0
5246 2 16.11 5.37 34.01 0 0 0
4124 1 16.11 8.95 26.85 0 0 0
4702 2 16.11 8.95 30.43 0 0 0
5280 3 16.11 8.95 34.01 0 0 0
4158 1 16.11 12.530000000000001 26.85 0 0 0
4736 3 16.11 12.530000000000001 30.43 0 0 0
5314 3 16.11 12.530000000000001 34.01 0 0 0
4058 4 19.69 1.79 26.85 0 0 0
4636 5 19.69 1.79 30.43 0 0 0
5214 2 19.69 1.79 34.01 0 0 0
4092 5 19.69 5.37 26.85 0 0 0
4670 3 19.69 5.37 30.43 0 0 0
5248 1 19.69 5.37 34.01 0 0 0
4126 3 19.69 8.95 26.85 0 0 0
4704 2 19.69 8.95 30.43 0 0 0
5282 5 19.69 8.95 34.01 0 0 0
4160 1 19.69 12.530000000000001 26.85 0 0 0
4738 4 19.69 12.530000000000001 30.43 0 0 0
5316 5 19.69 12.530000000000001 34.01 0 0 0
4060 1 23.27 1.79 26.85 0 0 0
4638 5 23.27 1.79 30.43 0 0 0
5216 5 23.27 1.79 34.01 0 0 0
4094 3 23.27 5.37 26.85 0 0 0
4672 3 23.27 5.37 30.43 0 0 0
5250 2 23.27 5.37 34.01 0 0 0
4128 1 23.27 8.95 26.85 0 0 0
4706 3 23.27 8.95 30.43 0 0 0
5284 2 23.27 8.95 34.01 0 0 0
4162 1 23.27 12.530000000000001 26.85 0 0 0
4740 4 23.27 12.530000000000001 30.43 0 0 0
5318 4 23.27 12.530000000000001 34.01 0 0 0
4062 1 26.85 1.79 26.85 0 0 0
4640 5 26.85 1.79 30.43 0 0 0
5218 1 26.85 1.79 34.01 0 0 0
4096 2 26.85 5.37 26.85 0 0 0
4674 4 26.85 5.37 30.43 0 0 0
5252 4 26.85 5.37 34.01 0 0 0
4130 1 26.85 8.95 26.85 0 0 0
4708 1 26.85 8.95 30.43 0 0 0
5286 2 26.85 8.95 34.01 0 0 0
4164 1 26.85 12.530000000000001 26.85 0 0 0
4742 3 26.85 12.530000000000001 30.43 0 0 0
5320 4 26.85 12.530000000000001 34.01 0 0 0
6359 3 0 0 39.38 0 0 0
6937 1 0 0 42.96 0 0 0
7515 1 0 0 46.54 0 0 0
6393 1 0 3.58 39.38 0 0 0
6971 2 0 3.58 42.96 0 0 0
7549 3 0 3.58 46.54 0 0 0
6427 1 0 7.16 39.38 0 0 0
7005 4 0 7.16 42.96 0 0 0
7583 3 0 7.16 46.54 0 0 0
6461 4 0 10.74 39.38 0 0 0
7039 2 0 10.74 42.96 0 0 0
7617 3 0 10.74 46.54 0 0 0
6495 5 0 14.32 39.38 0 0 0
7073 3 0 14.32 42.96 0 0 0
7651 3 0 14.32 46.54 0 0 0
6361 4 3.58 0 39.38 0 0 0
6939 3 3.58 0 42.96 0 0 0
7517 1 3.58 0 46.54 0 0 0
6395 1 3.58 3.58 39.38 0 0 0
6973 4 3.58 3.58 42.96 0 0 0
7551 2 3.58 3.58 46.54 0 0 0
6429 3 3.58 7.16 39.38 0 0 0
7007 3 3.58 7.16 42.96 0 0 0
7585 5 3.58 7.16 46.54 0 0 0
6463 5 3.58 10.74 39.38 0 0 0
7041 1 3.58 10.74 42.96 0 0 0
7619 3 3.58 10.74 46.54 0 0 0
6497 1 3.58 14.32 39.38 0 0 0
7075 4 3.58 14.32 42.96 0 0 0
7653 2 3.58 14.32 46.54 0 0 0
6363 4 7.16 0 39.38 0 0 0
6941 2 7.16 0 42.96 0 0 0
7519 3 7.16 0 46.54 0 0 0
6397 3 7.16 3.58 39.38 0 0 0
6975 3 7.16 3.58 42.96 0 0 0
7553 4 7.16 3.58 46.54 0 0 0
6431 5 7.16 7.16 39.38 0 0 0
7009 5 7.16 7.16 42.96 0 0 0
7587 3 7.16 7.16 46.54 0 0 0
6465 4 7.16 10.74 39.38 0 0 0
7043 4 7.16 10.74 42.96 0 0 0
7621 3 7.16 10.74 46.54 0 0 0
6499 4 7.16 14.32 39.38 0 0 0
7077 2 7.16 14.32 42.96 0 0 0
7655 3 7.16 14.32 46.54 0 0 0
6365 2 10.74 0 39.38 0 0 0
6943 4 10.74 0 42.96 0 0 0
7521 4 10.74 0 46.54 0 0 0
6399 1 10.74 3.58 39.38 0 0 0
6977 5 10.74 3.58 42.96 0 0 0
7555 5 10.74 3.58 46.54 0 0 0
6433 4 10.74 7.16 39.38 0 0 0
7011 5 10.74 7.16 42.96 0 0 0
7589 4 10.74 7.16 46.54 0 0 0
6467 3 10.74 10.74 39.38 0 0 0
7045 3 10.74 10.74 42.96 0 0 0
7623 1 10.74 10.74 46.54 0 0 0
6501 1 10.74 14.32 39.38 0 0 0
7079 1 10.74 14.32 42.96 0 0 0
7657 4 10.74 14.32 46.54 0 0 0
6367 4 14.32 0 39.38 0 0 0
6945 4 14.32 0 42.96 0 0 0
7523 3 14.32 0 46.54 0 0 0
6401 4 14.32 3.58 39.38 0 0 0
6979 5 14.32 3.58 42.96 0 0 0
7557 5 14.32 3.58 46.54 0 0 0
6435 3 14.32 7.16 39.38 0 0 0
7013 1 14.32 7.16 42.96 0 0 0
7591 3 14.32 7.16 46.54 0 0 0
6469 2 14.32 10.74 39.38 0 0 0
7047 4 14.32 10.74 42.96 0 0 0
7625 4 14.32 10.74 46.54 0 0 0
6503 4 14.32 14.32 39.38 0 0 0
7081 3 14.32 14.32 42.96 0 0 0
7659 5 14.32 14.32 46.54 0 0 0
6369 5 17.9 0 39.38 0 0 0
6947 2 17.9 0 42.96 0 0 0
7525 4 17.9 0 46.54 0 0 0
6403 3 17.9 3.58 39.38 0 0 0
6981 1 17.9 3.58 42.96 0 0 0
7559 2 17.9 3.58 46.54 0 0 0
6437 3 17.9 7.16 39.38 0 0 0
7015 5 17.9 7.16 42.96 0 0 0
7593 4 17.9 7.16 46.54 0 0 0
6471 4 17.9 10.74 39.38 0 0 0
7049 5 17.9 10.74 42.96 0 0 0
7627 4 17.9 10.74 46.54 0 0 0
6505 2 17.9 14.32 39.38 0 0 0
7083 3 17.9 14.32 42.96 0 0 0
7661 2 17.9 14.32 46.54 0 0 0
6371 1 21.48 0 39.38 0 0 0
6949 2 21.48 0 42.96 0 0 0
7527 2 21.48 0 46.54 0 0 0
6405 4 21.48 3.58 39.38 0 0 0
6983 5 21.48 3.58 42.96 0 0 0
7561 1 21.48 3.58 46.54 0 0 0
6439 1 21.48 7.16 39.38 0 0 0
7017 2 21.48 7.16 42.96 0 0 0
7595 3 21.48 7.16 46.54 0 0 0
6473 5 21.48 10.74 39.38 0 0 0
7051 4 21.48 10.74 42.96 0 0 0
7629 5 21.48 10.74 46.54 0 0 0
6507 3 21.48 14.32 39.38 0 0 0
7085 2 21.48 14.32 42.96 0 0 0
7663 3 21.48 14.32 46.54 0 0 0
6373 1 25.060000000000002 0 39.38 0 0 0
6951 4 25.060000000000002 0 42.96 0 0 0
7529 2 25.060000000000002 0 46.54 0 0 0
6407 5 25.060000000000002 3.58 39.38 0 0 0
6985 1 25.060000000000002 3.58 42.96 0 0 0