LAMMPS data file via write_data, version 22 Jul 2025, timestep = 505000, units = metal

9826 atoms
5 atom types

4.082228951189966 56.77777104880729 xlo xhi
4.277747958375395 56.58225204161932 ylo yhi
4.019233056077767 56.84076694392519 zlo zhi

Masses

1 26.98154
2 47.9
3 95.94
4 51.996
5 183.5

Atoms # atomic

8737 3 5.624678821511036 6.963998315484985 8.05320132683053 1 0 1
8126 3 7.262611725870374 5.357398843858155 6.736668133896973 1 0 1
8160 1 7.232507389684224 8.438233578594133 6.421711449399696 1 0 1
8159 1 5.84336869568657 6.876007589414206 4.909308480290759 1 0 1
8816 5 22.689460585352688 17.339860242845344 10.016238554404042 0 0 1
8127 3 8.595998445604366 6.774165958896646 4.595817744903559 0 0 1
8705 4 8.742431698807128 7.074785092831331 8.11580274193585 0 0 1
8707 1 11.667673550539082 7.105738083409316 8.006270341065642 0 0 1
8094 3 10.021823533898377 5.482939848538558 6.570567469331443 0 0 1
8128 5 10.129375469241335 8.492214874042633 6.293446504908894 0 0 1
8129 5 11.873290433525701 7.0788933155477505 4.886727986232327 0 0 1
8096 1 13.307826056544446 5.41431265252987 6.674980274227976 0 0 1
8709 3 14.877112720996283 7.175112043198332 8.078981310163918 0 0 1
8098 3 16.563427942842136 5.473970513176884 6.779631329477832 0 0 1
8131 5 14.981553831626549 6.949119319856736 5.1071179383789875 0 0 1
8130 3 13.346871871740639 8.606243763868182 6.638080588074893 0 0 1
8132 1 16.607066698582237 8.703512219982704 6.847126417722909 0 0 1
8711 1 18.092791332831595 7.026762977318511 8.387315365054988 0 0 1
8713 3 21.189871352487106 7.140084727712679 8.397858730330281 0 0 1
8100 3 19.88137780968695 5.434227503906293 6.706448979685927 0 0 1
8135 1 21.524183545700016 7.102913009529563 5.193258314288474 0 0 1
8133 3 18.03591252619795 6.897247128841668 5.123846694871218 0 0 1
8134 5 19.625586067175256 8.498713860531963 6.678167072632265 0 0 1
8102 1 22.797780422314563 5.452608313961742 6.751237734654792 0 0 1
8715 1 24.560106104317075 6.8755412584943345 8.280773805084106 0 0 1
8136 5 22.94577638429877 8.504715434087897 7.085253120001702 0 0 1
8137 5 24.580172489695837 7.089849762062837 5.372972628760123 0 0 1
8138 1 26.077744170509398 8.675952543434029 6.96769164930128 0 0 1
8104 4 26.01419190020114 5.402972670757855 6.872960915190803 0 0 1
8106 1 29.06971114608533 5.421071952557528 7.026719955344193 0 0 1
8717 4 27.20844824038738 6.729937600346874 8.449402162485743 0 0 1
8140 5 28.94830198662364 8.561596749453013 7.05160195073237 0 0 1
8139 3 27.44357307482239 6.903121323461671 5.396713904076808 0 0 1
8771 3 5.776704570426861 9.987197234760231 8.248390198537711 1 0 1
8194 3 7.191857173525269 11.379549934019018 6.295451176652827 1 0 1
8805 3 5.710160952297401 12.931241140451872 8.051775906780598 1 0 1
8193 5 5.70116122738287 9.61543537179532 4.530681105295661 1 0 1
8192 1 4.292719268735585 11.366386054148672 6.290854029280689 1 0 1
8161 1 8.576300620040621 9.863070092720601 4.617052196279107 0 0 1
8773 3 8.701010511716149 12.788971945611616 8.133185169504229 0 0 1
8739 1 8.720010562252096 9.976275559385847 8.090227732257558 0 0 1
8741 3 11.717605975324041 10.069640159686621 8.146847130945613 0 0 1
8162 5 10.226392447548045 11.41117260201543 6.342329653759242 0 0 1
8775 1 11.699801232164127 12.867412660272748 8.218916033708318 0 0 1
8163 1 11.807005711300915 9.99347652646809 4.68695650042887 0 0 1
8164 3 13.320034978602084 11.453617154515264 6.40029686170575 0 0 1
8166 5 16.563026990108288 11.504393518024486 6.768857072169317 0 0 1
8743 1 14.80492968930539 10.16314657928028 8.373492588250965 0 0 1
8165 3 15.054664919106724 9.908081363526652 5.0469627687234055 0 0 1
8777 1 14.68684015920239 12.716667445793899 8.499145686638501 0 0 1
8745 3 18.137458138284607 10.143832832035258 8.287324884175506 0 0 1
8747 1 21.22100684022536 10.097775168006521 8.489327894072469 0 0 1
8168 3 19.777889130488635 11.600213514579071 6.625780859799448 0 0 1
8169 3 21.469399536993297 9.99711349589574 5.198835530568313 0 0 1
8167 1 18.150673864518875 10.02400599758391 4.893222818321195 0 0 1
8781 4 21.10922893873563 13.074102259905251 8.436826747867224 0 0 1
8779 1 18.210384479263524 12.945289274821505 8.389133107141276 0 0 1
8201 3 17.91323744901977 13.092353770123749 5.11204209623091 0 0 1
8170 1 22.855907392600017 11.751101295982048 7.046509360228872 0 0 1
8749 3 24.44049889939966 10.2086640673934 8.699370772059877 0 0 1
8171 3 24.389752140202372 10.064187077397195 5.096579897728273 0 0 1
8172 5 25.968534200438178 11.492152184892479 6.7829378063665455 0 0 1
8751 1 27.409491365975228 10.114602121746174 8.665719088162687 0 0 1
8174 1 28.952792619569614 11.579161451369181 7.016930142007722 0 0 1
8173 1 27.652431923630992 10.090458014070782 5.285368733278935 0 0 1
8785 3 27.379414816964502 13.139276640875774 8.704543821126007 0 0 1
8227 5 5.728878444483501 13.304119983642597 4.97151079818613 1 0 1
8839 5 5.699305263633783 16.297792689210752 8.361202442138612 1 0 1
8228 1 7.205188245971718 14.805746304022582 6.718007690599042 1 0 1
8261 3 5.7630155046556775 16.17577208326788 4.866162855265183 1 0 1
8197 1 11.69363316295954 13.057173267252422 4.799170798144244 0 0 1
8229 1 8.711728687664685 16.120639221352455 4.963277858359846 0 0 1
8195 3 8.704944138631603 13.26277540781107 4.891000383646087 0 0 1
8807 3 8.737128774455837 16.272446529596024 8.427590033804416 0 0 1
8196 5 10.210187511268535 14.68627925271234 6.8027510961359825 0 0 1
8809 1 11.82634799977873 16.273667601235218 8.390855498781564 0 0 1
8231 3 11.811398707573897 16.02584929839557 4.946344809863894 0 0 1
8199 3 15.03962077370674 12.998722698639938 5.071969721479484 0 0 1
8198 5 13.186958423575668 14.425060745659422 6.844296335191351 0 0 1
8233 5 14.814445181884746 15.960851407019414 5.175355536808434 0 0 1
8811 3 14.738399769779942 16.24223329472298 8.176973849160442 0 0 1
8200 3 16.23101290626139 14.5251921372382 6.965489214469095 0 0 1
8203 5 21.47302667806033 12.99706402138088 5.147751599673372 0 0 1
8235 3 17.95223229499821 15.875596156811286 5.137460300693149 0 0 1
8202 1 19.706349226746397 14.521824964931774 6.750385602013243 0 0 1
8815 1 21.09832864495786 16.095264272027322 8.271302740867274 0 0 1
8813 3 18.15847345857389 16.058413057128366 8.236449832223995 0 0 1
8237 3 21.38190399718117 15.948326827885484 5.118294318490667 0 0 1
8783 1 24.46771861256114 13.129794495970263 8.661038564495561 0 0 1
8205 1 24.381288272755125 13.0356132555446 5.256176633231973 0 0 1
8817 3 24.307989944775603 16.170396643413113 8.339957386404588 0 0 1
8204 5 22.837735832773824 14.554880309086176 6.918440340600457 0 0 1
8206 1 25.801762476542393 14.599919861461718 6.877181499847103 0 0 1
8239 3 24.20031614400974 16.134946367903993 5.157563309260643 0 0 1
8207 3 27.494168992607086 13.14029303260673 5.261947116988153 0 0 1
8208 3 29.049358747581888 14.675309966249628 6.84110221052782 0 0 1
8819 5 27.417775894844414 16.187302785179806 8.3331867346495 0 0 1
8241 1 27.460669573444484 16.20031518496578 5.420544402551813 0 0 1
8704 1 7.242004402586833 5.4612847959180675 9.712420688867116 1 0 1
8738 5 7.287704468846092 8.413666112302769 9.699576127132543 1 0 1
9315 4 5.747451503196061 6.838152749780029 11.252811520170754 1 0 1
9282 2 7.066555378699396 5.193660691977373 12.808557309787778 1 0 1
9316 4 7.0799741617407825 8.18523062306655 12.804993499653001 1 0 1
9280 2 4.434612777394766 4.8156632888654 12.716067069087718 1 0 1
8702 3 4.355515107716081 5.1683966377125135 9.735047333289625 1 0 1
9314 4 4.291759012603121 8.112729350202752 12.930992833677616 1 0 1
9364 3 28.59162748465593 14.556906384263936 13.570939886582197 0 0 1
137 4 8.791448366082605 15.951806281557236 14.579746135722111 0 0 0
9283 2 8.688729369778567 6.787496340304818 11.468268532783846 0 0 1
35 5 8.878844325800653 6.745725092022056 14.394500385643056 0 0 0
8672 3 10.328438832930821 5.496036785911427 9.723850663768165 0 0 1
9285 4 11.877596949766891 7.015874074342857 11.308665475463913 0 0 1
9250 2 10.479981189433406 5.266225028402485 12.642928059013192 0 0 1
9284 4 10.477507314681176 8.20833076166683 12.70614788830712 0 0 1
8706 1 10.22797362295103 8.354853597478819 9.692701310159627 0 0 1
8158 4 4.284135601735444 8.377985479502613 6.283467032392167 1 0 1
8674 5 13.305687843747553 5.455895781676981 9.43632479476718 0 0 1
8676 1 16.291200432420787 5.52457233871585 9.612980970333483 0 0 1
9252 4 13.366355924043088 5.478180397683251 12.762989166460981 0 0 1
9287 2 14.74456810668531 6.881389109914984 11.204598476092022 0 0 1
9254 5 16.354510624084895 5.4642398375518315 12.865279104085861 0 0 1
9288 2 16.337904624651483 8.459334459792665 12.768558573626839 0 0 1
9286 5 13.373665451010275 8.542304417530737 12.869969358020732 0 0 1
9399 3 30.325024399505782 16.159103831818804 11.840728557846735 0 0 1
39 2 14.800920103341074 6.95046635949335 14.566055132098043 0 0 0
8678 3 19.763292924365636 5.443413572185527 9.616093382015737 0 0 1
9289 5 17.986943927408937 6.87706051465727 11.175570811668532 0 0 1
9291 3 21.07732995110449 6.944719625198228 11.457171787984322 0 0 1
9256 1 19.280601532634854 5.404416904073541 12.889536091897375 0 0 1
43 5 21.25045213848909 6.944871663453872 14.254894733246958 0 0 0
9290 2 19.33306263296265 8.300330541763023 12.865332116700559 0 0 1
8712 2 19.477960838887 8.704204057437083 9.911860378571067 0 0 1
8680 5 22.70456058442365 5.285957254147963 9.83102630703834 0 0 1
8714 2 22.97202980855226 8.341020138261275 9.977765353733172 0 0 1
9293 2 24.44920618478223 6.805096531127867 11.491474499871476 0 0 1
9258 1 22.883289327388262 5.288408343334411 12.822141090528481 0 0 1
9260 5 25.97950581032623 5.32218027768236 12.917697609652553 0 0 1
9294 2 25.9654735894397 8.47701393103809 12.770216543046693 0 0 1
8716 5 25.941447140203195 8.435384180261075 9.962942424421547 0 0 1
45 3 24.382390552812904 6.871031208571228 14.430364175340985 0 0 0
9292 4 22.85599213618087 8.332867349202349 12.632116386938492 0 0 1
8682 4 25.958979874804534 5.371162884147489 9.96531234856394 0 0 1
8718 1 28.822723494354864 8.385845672216675 10.028079640270908 0 0 1
8684 5 29.031520738745865 5.417707914440429 9.833906999755525 0 0 1
9295 4 27.573405470067378 6.791263252090292 11.429231681833995 0 0 1
9262 4 28.77469642355419 5.207233524917498 12.940724062575342 0 0 1
9296 4 28.696522509613885 8.36716947367783 12.932277699540284 0 0 1
8786 1 29.107281925758304 14.52044130131611 10.060852983986203 0 0 1
8772 1 7.3615328188526234 11.428837159938986 9.951841275181007 1 0 1
9349 1 5.653494819876323 9.932942332713774 11.483963951796794 1 0 1
9350 3 7.364198481430013 11.342344086815686 12.980426605795419 1 0 1
101 2 5.818573034634743 9.77619269489049 14.337629298612992 1 0 0
9383 5 5.682177424333542 13.032050697882159 11.403744574397283 1 0 1
9397 5 27.404637311149457 16.08362623000771 11.896557133749234 0 0 1
49 5 30.336901375018545 6.789458685158843 14.525431300660063 0 0 0
9317 4 8.722327582503912 9.729739268783224 11.542207329864075 0 0 1
8740 5 10.100231468432245 11.419011301075285 10.06548461275012 0 0 1
9319 2 11.762049561621645 10.087690909971796 11.562483960495044 0 0 1
9318 2 10.103879429534683 11.407507550073861 13.058020042571693 0 0 1
105 2 11.808572736033181 12.956259390234896 14.449977590803957 0 0 0
9348 4 4.277460794502278 11.463476678152855 13.03669782419929 1 0 1
8708 5 13.205177272913495 8.662899876508721 9.864507998692009 0 0 1
8710 3 16.492222747980147 8.672153150790216 9.886455090415097 0 0 1
8742 4 13.06597777882633 11.476734621311444 10.00473652684153 0 0 1
8744 4 16.50890493509169 11.649349264105101 9.933390896898324 0 0 1
9320 4 13.516908906742799 11.403791509641202 12.997570157821666 0 0 1
9321 4 15.076333551645948 10.41557766695421 11.515883848548544 0 0 1
9322 5 16.419248676358357 11.271896204022514 12.953958698929707 0 0 1
107 4 15.165323872323864 12.471272605712635 14.18960089528872 0 0 0
9355 1 14.912856525264313 13.124197477356157 11.640568634259406 0 0 1
73 4 15.078550031098757 10.017131980673962 14.348410156880917 0 0 0
8124 1 4.372780186022804 5.100530166627819 6.629722935935222 1 0 1
9357 4 17.587453149370376 12.723584566137678 11.739644192186338 0 0 1
9323 4 17.825272296978056 10.129271803349186 11.6867258691685 0 0 1
75 4 17.754318082052382 10.106962212164593 14.213739202402072 0 0 0
8746 1 19.528725577652107 11.620997475541714 10.206796852890584 0 0 1
9325 5 21.190270715876938 9.854425639468527 11.533372025322011 0 0 1
9324 4 19.584716902741274 11.645401882976723 12.876728171069239 0 0 1
77 2 21.06464378565044 9.71422443433066 14.343541081869882 0 0 0
109 4 17.731047706484272 12.536049605839407 14.166674593450947 0 0 0
9359 4 21.289882055866492 12.934151262029408 11.641241811519919 0 0 1
8748 4 22.574352809161187 11.730313366740404 9.843806525147045 0 0 1
9327 2 24.1310569079386 10.293853637996056 11.527077250280099 0 0 1
9328 3 25.890436114277126 11.442739528742058 13.154720277447774 0 0 1
9326 2 22.506599917424925 11.503996972209189 13.291244594889255 0 0 1
79 4 24.0990532621244 9.71733200691199 14.301489682393496 0 0 0
9361 5 24.110200844668885 13.079784326989126 11.570133394730393 0 0 1
9297 1 30.34524290466481 6.83466306480498 11.712970713573846 0 0 1
8750 4 26.01295940251079 11.484009725960515 10.238182569729263 0 0 1
8752 5 29.02656636029736 11.563727760243978 10.166890360137161 0 0 1
9329 4 27.53680077714967 10.106839007296259 11.615713962338218 0 0 1
9330 1 28.888138373948113 11.585682313554418 13.442932900389993 0 0 1
8804 3 4.0867070251818856 14.353527760279981 9.54455363083508 1 0 1
9382 1 4.311031043111835 14.447619947783968 13.344611523970967 1 0 1
8806 1 7.187755122843876 14.425004720775625 9.721271180463221 1 0 1
9417 3 5.519764379389197 15.8808473473953 11.335748919575838 1 0 1
9384 1 7.0936375754493195 14.458914500740912 13.266222204393497 1 0 1
9353 5 12.00959283968324 13.144170698338732 11.424391276737412 0 0 1
9385 5 8.62913104033302 15.993571766159677 11.47829182880782 0 0 1
9351 1 8.631831165655132 13.200158224000447 11.58677633002042 0 0 1
8774 3 10.279271474713758 14.443149568490977 9.810495387060966 0 0 1
9387 3 11.958854448361883 15.933473335082677 11.657139172730771 0 0 1
9352 2 10.240060064785908 14.60740309243882 13.203406316749092 0 0 1
8776 1 13.34560422220003 14.628859303746426 9.698903651040599 0 0 1
8778 5 16.419569178956884 14.427156641210303 9.785522240791533 0 0 1
9354 4 13.587502145836982 14.579219762728183 13.092567891736923 0 0 1
9389 3 15.092024310562422 16.035108998913394 11.49850018927882 0 0 1
9356 4 16.43704032994063 14.440009965390917 13.223267076953881 0 0 1
9395 1 24.081628291411395 15.932944503142542 11.89169586177614 0 0 1
9363 1 27.29370625533761 13.197608840255745 11.67456991905748 0 0 1
8780 5 19.66852239214841 14.421578745995598 10.055112518011128 0 0 1
9391 2 17.911234792562325 15.829964961689635 11.539794541850519 0 0 1
9393 4 21.010870529291363 15.963052990822446 11.707878109722984 0 0 1
9358 2 19.451541928632455 14.225748504191062 12.940049802299017 0 0 1
9362 1 25.694090460406944 14.596856307412923 13.357201781517787 0 0 1
9360 4 22.387442774678938 14.620919842022936 13.186395347832836 0 0 1
8784 3 25.792862523504873 14.819691154834235 10.086012732381018 0 0 1
69 2 8.849878437275015 9.658147638922038 14.389547629161381 0 0 0
8782 1 22.526482827277604 14.624635341200884 9.915431774073252 0 0 1
113 2 24.088627256933073 12.918042859952514 14.535841142343045 0 0 0
71 4 11.667003711580312 9.831140724932027 14.470618195916233 0 0 0
37 2 11.906845523644673 6.772587898824572 14.547830296714176 0 0 0
143 4 18.2544271640031 15.72033802173871 14.539093196463492 0 0 0
67 2 5.809552939361987 6.48044317121235 14.583372743860608 1 0 0
41 4 17.73891558326817 7.05709376884186 14.531278055387617 0 0 0
147 4 24.07631948240612 16.151046308751972 14.561993343907993 0 0 0
47 2 27.389040128769263 6.865759749519963 14.556902485023034 0 0 0
7528 5 29.234069770602055 5.460862036531873 4.034008109160119 0 0 1
612 2 7.646000414078497 5.0839283208513635 19.280982382904718 1 0 0
645 5 5.944743073115201 6.610562959716553 17.59120438075902 1 0 0
646 4 7.439794408349826 8.06822779465503 19.399762246757533 1 0 0
68 2 7.308269302828239 8.308273967432072 15.920164576062541 1 0 0
34 4 7.432071808499968 5.096531306207783 16.07962172408505 1 0 0
644 2 4.677467073271273 7.945192130816996 19.535096823097568 1 0 0
610 2 4.547536125021559 4.962178141809394 19.301129693300997 1 0 0
66 3 4.37540257892673 8.22073926310881 16.04713137200406 1 0 0
111 4 21.069793073540556 12.92735403762864 14.76040741703008 0 0 0
613 2 8.869841173421591 6.80979978036871 17.53025795316556 0 0 0
615 5 11.874950900441311 6.895128935196928 17.355812247837857 0 0 0
580 4 10.57443060176599 5.144212926455639 19.118827785544312 0 0 0
614 2 10.505697669547965 8.089829489516067 19.25512273226191 0 0 0
36 4 10.310987088178774 8.455976004762654 16.001018352432755 0 0 0
2 2 10.400849054337083 5.17598275448333 16.016213251420176 0 0 0
4 4 13.360162109902568 5.193990328373184 16.118215505481913 0 0 0
616 2 13.338221204682235 8.146193175048394 19.17988605767983 0 0 0
6 5 16.2862717621653 5.223491464613004 16.0343013184339 0 0 0
582 5 13.584082981384292 5.386247063928135 19.198000325689456 0 0 0
584 2 16.563291373108477 5.176485348374047 18.996877406991143 0 0 0
617 2 14.796976172087529 6.98588328406803 17.368009984355936 0 0 0
618 2 16.578514116847234 8.225243483269681 19.09485723382845 0 0 0
40 4 16.504882218521054 8.420281894018949 15.97388687660956 0 0 0
42 2 19.510476403774586 8.33273624552151 15.96663100094446 0 0 0
586 2 19.613219003861754 5.048058684091925 19.14524408070567 0 0 0
621 5 21.172929439300486 6.731628329393093 17.303568580100514 0 0 0
619 2 18.08953883439903 6.718177468770492 17.60388888527574 0 0 0
8 4 19.37334892123029 5.680042828392966 15.66924052265541 0 0 0
623 2 24.254496561899014 6.722864205978992 17.55899076862627 0 0 0
588 3 22.522344940242952 4.897378139835932 19.07596468097872 0 0 0
590 2 25.50854569839918 5.005608553062382 19.17004551000254 0 0 0
624 4 25.650602085244564 8.202696362131102 19.168551668903522 0 0 0
622 4 22.62895483443504 8.29502205600626 18.93332690474264 0 0 0
10 2 22.870524802592463 5.200207770103612 15.878722451270601 0 0 0
44 2 22.782380494642283 8.3256485066263 16.000507541895274 0 0 0
12 2 25.707844711270106 5.038071902676638 15.839835002257113 0 0 0
46 2 25.743463696742744 8.297382597534096 16.1560306081124 0 0 0
592 2 28.93032276967199 5.084361577434364 19.08521828728529 0 0 0
625 5 27.08696106398217 6.4291071182313715 17.645635536367315 0 0 0
626 2 28.765150640096895 8.062219514790263 19.196931363460244 0 0 0
48 2 28.69571042747801 8.159610384422628 16.184456725947186 0 0 0
14 2 28.66605718139324 4.981680005422547 15.906533380509657 0 0 0
1324 2 4.48076180297441 17.31122494353376 22.425816340972755 1 0 0
680 2 7.247503561193199 11.31837802719598 19.293917790548797 1 0 0
679 2 5.962261193391891 9.460523469116366 17.858091351735954 1 0 0
713 2 5.717908888170241 12.802164946704718 17.751420491258035 1 0 0
102 5 7.355029612377093 11.204062512588937 16.13536815686088 1 0 0
678 2 4.488518450503472 11.233216698786823 19.3854792013192 1 0 0
100 5 4.269397711189508 11.092466255257083 16.045354544912247 1 0 0
681 2 8.993351819350082 12.657363148249962 17.76702758727674 0 0 0
647 5 8.825203192510262 9.715999808745917 17.840836806654806 0 0 0
648 4 10.57821070123691 11.20821781354465 19.34912839979462 0 0 0
649 2 11.803920806030856 9.8024906320149 17.637025046840556 0 0 0
683 4 11.889573965780967 12.762306376851692 17.47054096953179 0 0 0
70 4 10.304736242269549 11.28334464349404 15.985456227453994 0 0 0
149 2 27.13793392117557 16.389636008334598 14.782197214992456 0 0 0
169 4 5.760810786974821 16.011525246453836 14.711889361443776 1 0 0
38 4 13.399831277706856 8.594392076873973 15.814625056949808 0 0 0
652 2 16.69671331084068 11.135386018584867 19.1570507518585 0 0 0
650 2 13.376875707905192 11.269964463548646 19.19765761986479 0 0 0
651 5 14.89113892215839 9.767080212066764 17.658786081415293 0 0 0
685 4 15.206324918810427 12.605646596735959 17.619866067624898 0 0 0
72 2 13.42750970555403 11.369692835699936 15.908011386299016 0 0 0
74 4 16.466791805010114 11.324415776454252 15.88637814615936 0 0 0
620 2 19.531460155248652 8.413853357159677 18.960739420795324 0 0 0
654 2 19.63548864626171 11.067043499969756 18.99030185480047 0 0 0
655 4 20.988740053470107 9.752548948253587 17.35401176744179 0 0 0
653 4 17.961220598274057 9.881450424370229 17.304048850579758 0 0 0
687 2 18.140903147319868 12.603661279964596 17.58269611124001 0 0 0
76 4 19.505430394961596 11.16398578469152 15.798173139825442 0 0 0
689 2 21.000950144266458 12.897320188053854 17.51296523665908 0 0 0
78 5 22.67135194048999 11.239136385014298 16.15055693645595 0 0 0
656 2 22.47160414620886 11.193866751302231 19.000591734088395 0 0 0
658 2 25.47863341786722 11.10428626860294 19.224103744775046 0 0 0
657 4 24.24976633943615 9.662196316937006 17.720566463481905 0 0 0
80 2 25.488889680262925 11.258124064750053 15.983552087842227 0 0 0
691 2 24.108896898120797 12.806610814654306 17.681738622184177 0 0 0
1782 2 28.79061128905782 8.374767781843236 25.0111369439527 0 0 0
660 3 28.880267801568362 11.78039617654878 19.19001462954687 0 0 0
661 3 30.224764789602773 9.717702501391301 17.822448383219896 0 0 0
659 5 27.32812620359621 9.933777376152726 17.778282478285927 0 0 0
82 1 28.954013698518455 11.647495030700178 16.17677596670631 0 0 0
693 3 26.91233933328767 12.75659542538082 17.585350749892044 0 0 0
1876 2 16.84425680208425 17.27020274287772 25.074235719671705 0 0 0
115 4 27.19089927820293 12.95591949697221 14.910070059691138 0 0 0
32 4 4.4603515425377935 5.055039008533865 16.38485602294324 1 0 0
714 5 7.3737326595278985 14.085928605417573 19.379021818219158 1 0 0
747 2 5.904478066175954 15.941525645536139 17.812249653321956 1 0 0
136 3 7.336207861542503 14.450337167272492 16.10118383639394 1 0 0
712 2 4.246100762497418 14.270464883776661 19.423258599967408 1 0 0
134 3 4.316882275773522 14.394983201943589 16.165842236682465 1 0 0
1816 5 28.817383211377546 11.58733777322723 25.028085491750065 0 0 0
715 4 8.854553738047052 15.928627105771458 17.73120264181542 0 0 0
717 2 12.00640860793872 16.039366903539673 17.519944362440707 0 0 0
682 2 10.564087024692096 14.29011545720105 18.898620059861553 0 0 0
104 3 10.34030418277001 14.408299399337912 16.212094228901346 0 0 0
627 3 30.37713470759674 6.641878893730139 17.648630836429877 0 0 0
684 5 13.547054626775356 14.309619359346764 18.95639648950706 0 0 0
106 2 13.681190058397384 14.051533277283541 16.049060804260215 0 0 0
686 3 16.59993924442428 14.40137323840907 18.98895586801238 0 0 0
719 2 14.94345727211839 16.055285791406924 17.486819303596615 0 0 0
108 5 16.541867788989812 14.123849689144846 15.95348471840445 0 0 0
151 3 30.372972487785734 16.17488731607667 14.75771248393011 0 0 0
721 2 18.24809269309929 15.966097618995652 17.065907919111243 0 0 0
688 2 19.44997227278239 14.662612964312935 18.97252658492851 0 0 0
723 4 20.93071398579507 15.881198366357857 17.360152052585796 0 0 0
110 4 19.38151624534602 14.03675335414135 15.82193513754455 0 0 0
1305 2 26.834603759579647 16.3226005726251 20.796832858814735 0 0 0
1296 4 13.411183354502842 17.27474136867947 22.252228230373962 0 0 0
112 2 22.682830490327106 14.568311554717303 16.02813196714998 0 0 0
114 5 25.580832247384695 14.603721257345248 16.167727004102005 0 0 0
690 2 22.55807878590432 14.632690626131273 19.048568816815603 0 0 0
692 2 25.6077683244549 14.628369324125908 19.035315613919643 0 0 0
725 4 24.02822446858452 16.1534570450834 17.86253655202485 0 0 0
1849 4 27.223699392291152 13.274970485703374 23.839343750795305 0 0 0
1272 1 28.56463590059061 14.64810752853979 22.03423426741257 0 0 0
116 1 28.55162816329562 14.663747912375413 16.37455373200246 0 0 0
729 3 30.260708344410766 16.402291670944365 17.733530154695615 0 0 0
694 5 28.597860023835356 14.76044134609012 19.203256176230582 0 0 0
727 2 27.104038640392332 16.47071040067364 17.661587424520906 0 0 0
1881 4 24.07253711689215 16.083957436460164 23.83579240499496 0 0 0
1223 4 6.25840733822305 6.495418567507535 20.89838626882245 1 0 0
1190 4 7.235180789112395 5.023665450645108 22.58064661151114 1 0 0
1801 2 5.63315072524269 6.603881292876765 24.069479140297506 1 0 0
1224 2 7.480301970083211 8.112954445605315 22.484558515286533 1 0 0
1222 2 4.378820331073051 8.186681345988323 22.453723570088243 1 0 0
1188 5 4.320533990351181 5.195530184148451 22.18849052338563 1 0 0
1769 2 8.979729937710378 6.498004310680653 23.832161443972208 0 0 0
1191 2 9.098380762286407 6.457420852350605 20.98451818548384 0 0 0
1193 4 11.85803418221236 6.501258618512275 20.652667141212014 0 0 0
1158 2 11.007135555274399 5.410302206409161 22.69022738217632 0 0 0
1771 4 12.548588309803538 7.146594457989881 24.237619911987206 0 0 0
1192 5 10.75004279014942 8.237855042281009 22.40019573622962 0 0 0
1195 4 15.304861887675756 6.844799033473274 20.63960206629162 0 0 0
1160 5 13.724064612731691 5.298141840395183 22.29406283142341 0 0 0
1162 2 16.54927106421624 5.289488176970238 22.299405194414287 0 0 0
1773 4 14.95976775003188 7.047751627909829 24.00506591331616 0 0 0
1196 4 16.360420509755066 8.074367959385757 22.286626101524877 0 0 0
1194 1 13.565211840321343 8.114087273996072 22.032964999376805 0 0 0
1307 3 30.32620078306015 16.238744099691843 20.59872946098467 0 0 0
1848 4 25.637753213698648 14.395733910535695 25.007657474470623 0 0 0
1199 2 21.038497242082236 6.885584124209094 20.531734920498796 0 0 0
1197 5 18.18740842174803 6.662764083553275 20.729334602254287 0 0 0
1164 2 19.811108063152204 5.17737106088732 22.35300119999214 0 0 0
1775 2 18.24286608945883 6.83001321426452 23.844175698973764 0 0 0
1777 4 21.150244166655245 6.700240713188157 23.98524693561475 0 0 0
1198 4 19.725066944592815 8.22863272394018 22.458595964443298 0 0 0
1201 2 24.01641939555351 6.811213638085885 20.546195924824982 0 0 0
1168 2 25.682800977712 5.204697442583348 22.03907970862381 0 0 0
1166 5 22.561293300667142 5.312851836626003 22.27955970213354 0 0 0
1779 2 24.238307261443538 6.734980790765279 23.81838005116332 0 0 0
1200 2 22.34454819547103 8.28195735195148 22.321597829194385 0 0 0
1202 2 25.90785355291677 8.243010837415959 22.013379778679333 0 0 0
1303 4 23.864951603293466 16.077842284866314 20.680212655983926 0 0 0
1877 4 19.433232875537303 17.239089724629487 22.54386377036769 0 0 0
1271 4 26.933135664710456 13.186540947438564 20.39825996812214 0 0 0
1748 2 28.862701612130664 5.217476024252448 25.08435414715499 0 0 0
1203 4 27.07434898430037 6.5980671933435255 20.455452820409914 0 0 0
1204 3 28.779876885828916 8.132735986810383 22.19403153082447 0 0 0
1170 5 28.69313599502815 5.245024780151219 22.033962792069435 0 0 0
1781 2 27.019160202387358 6.609940434774282 23.823887458843707 0 0 0
1257 4 6.070950559864828 9.510721837935112 20.895520491578363 1 0 0
1291 4 5.5112614403445175 12.820798695414627 20.921976481689583 1 0 0
1258 2 7.425431760870346 11.447912992049291 22.125710056955118 1 0 0
1835 3 5.942717028560642 9.857550841611195 23.706799363228733 1 0 0
1869 2 5.79747335386294 12.803402229163343 23.80158540015912 1 0 0
1256 4 4.476384260581134 11.299956529751046 22.28058399547426 1 0 0
1803 2 8.908378016634293 9.91616938302829 23.58218144560233 0 0 0
1227 4 11.995129724622863 9.633355699604387 20.63995431128571 0 0 0
1225 2 9.025943866103194 9.823676692377543 20.766969024142607 0 0 0
1837 4 9.027724243375093 12.760413239917131 23.766968683725676 0 0 0
1226 2 10.80803028058282 11.142538744596646 22.30718716984846 0 0 0
1805 4 12.457463496869927 9.53388184464888 23.963322339847323 0 0 0
1259 4 9.423327323220118 12.735427300528416 20.830191988540058 0 0 0
1838 4 10.213516186386745 14.464256169731609 25.054218202717927 0 0 0
1263 2 15.149626807591957 12.699104162485368 20.633406072006043 0 0 0
1229 4 15.280602043656966 9.818783618622053 20.854397418866814 0 0 0
1228 5 13.530110568875262 11.11251661038441 22.12580101492985 0 0 0
1230 4 16.732051768080762 11.395604442532175 22.161319471254085 0 0 0
1807 4 15.138340639274986 9.778743604057977 23.806120523039276 0 0 0
1841 4 15.282844731668277 12.709615278065932 23.695250400231895 0 0 0
1885 4 30.255931561855554 16.25821421744844 23.510292088181206 0 0 0
1809 4 17.73472859470543 10.0101284106069 23.928118109581014 0 0 0
1843 4 17.941735999912545 12.602930757637822 23.85639477648445 0 0 0
1233 4 21.096614022352373 9.574693436882658 20.547717210973847 0 0 0
1265 5 18.139463946041104 12.790440576371871 20.681819992572663 0 0 0
1231 2 18.15478083693207 9.447340203553978 20.915524624531642 0 0 0
1232 2 19.63957685114303 11.122536024812561 22.292289849609542 0 0 0
1811 4 21.342419916267403 9.985970651762333 23.84641041316825 0 0 0
1845 2 21.042500661560474 12.692499948778083 23.88415311857978 0 0 0
1267 5 20.92695121349972 13.04494945224334 20.58142481036575 0 0 0
1235 4 24.03413348065993 9.554134845751669 20.72960052401341 0 0 0
1234 2 22.32334172268064 11.195027168813727 21.891678659643322 0 0 0
1236 2 25.897698780460054 11.581627748479406 22.145004778006978 0 0 0
1813 5 24.31150535426561 9.882376271366166 23.479778602945395 0 0 0
1847 4 23.932173916207187 12.5963815357359 23.61488479757421 0 0 0
1269 5 24.074938798422835 12.92608858706573 20.49509932652909 0 0 0
1883 5 26.97163828497992 16.35193103987624 23.711680121387165 0 0 0
1237 2 27.38298029588668 9.918735456742096 20.579672294670146 0 0 0
1239 3 30.257821902203833 9.766965934735314 20.600538251974367 0 0 0
1238 5 28.68096357460028 11.732933805804972 22.091096961202172 0 0 0
1817 2 30.228931675301553 9.772882169217254 23.506932477437232 0 0 0
1815 4 27.118771445308937 9.935847574892378 23.632738265194796 0 0 0
1290 5 4.377235632471433 14.491997115696524 22.31450494131347 1 0 0
1325 4 5.8481601931987095 15.8990480326017 20.722087638415537 1 0 0
1292 2 7.529329695241694 14.313750302565047 22.260742044304028 1 0 0
1903 2 6.0255404044705 15.894201750087163 23.855407809606426 1 0 0
1261 2 12.012785380179023 12.978151470744658 20.625189943479757 0 0 0
1839 2 11.924207981556792 13.13467881996578 23.7354497446058 0 0 0