LAMMPS data file via write_data, version 12 Jun 2025, timestep = 800000, units = metal

2000 atoms
5 atom types

1.0912973669115296 29.90870263308833 xlo xhi
-0.3804374706181992 31.380437470615178 ylo yhi
-0.7731997692195236 31.773199769217587 zlo zhi

Masses

1 26.98154
2 47.9
3 95.94
4 51.996
5 183.5

Atoms # atomic

1474 4 6.231354717077123 3.6032692877531014 5.775082541855373 1 0 2
1454 2 6.15755887874437 -0.322256618048814 6.017628229825914 1 0 2
1473 2 4.856415901481444 1.3253669030215598 4.315814519178952 1 0 2
1472 2 3.4817758038409505 3.0417670327083646 5.67660422065104 1 0 2
1493 5 4.541783735556075 4.481597602863795 3.794670659524628 1 0 2
1274 1 6.249367264074866 2.6495598163302017 2.4673606685730904 1 0 2
1272 5 3.3235895441542302 2.659005051512082 2.5532203948999683 1 0 2
1254 5 6.228410037269016 -0.2718387662755951 2.269595154273317 1 0 2
1252 3 3.4564087455085475 -0.23257594169218257 2.227250255693353 1 0 2
1471 2 1.920594767193026 1.1060602455799189 4.136544576057424 1 0 2
1293 1 4.657761478362119 4.177418633479279 0.8522720867681721 1 0 2
1491 1 1.9439030684882679 4.6435548796547215 3.8804523585840407 1 0 2
1291 3 1.800294204576788 4.239239105810251 0.8078047823690551 1 0 2
1273 3 4.863486736028179 1.3695812323035275 0.5682907318175199 1 0 2
1271 1 1.8821670048374672 1.424700212370441 0.6373198939466653 1 0 2
1495 4 7.655672401071957 4.587993591770059 3.725330049842526 1 0 2
1494 2 5.9287557807100555 6.174665555563774 5.373671616004864 1 0 2
1475 5 7.668519047063378 1.3019757710531115 4.461791072701045 1 0 2
1295 5 7.651407046682777 4.351548120554545 0.694808028139303 1 0 2
1275 1 7.6683464288117715 1.412948151165715 0.3679071525496309 1 0 2
1476 2 8.638083216244949 3.439818420909956 5.940782517806103 1 0 2
1256 1 9.018786005994574 0.04577254557738342 2.3687741928780586 1 0 2
1276 3 8.982107892723642 2.85165212549381 2.4157137778675337 1 0 2
1478 2 11.836535244130832 2.9897712888343717 5.545649639489061 1 0 2
1477 2 10.252501381298593 1.3749278183204503 4.346828608842709 1 0 2
1479 5 13.001648148611764 1.0568684593431061 4.040518600961773 1 0 2
1278 2 11.879872429107678 2.917177333002019 2.343901206706953 1 0 2
1499 4 13.310290070432794 4.363220828056202 3.802434675870523 1 0 2
1258 1 11.738901814708056 -0.2101980686694871 1.9344505360952646 1 0 2
1497 5 10.296976702337236 4.516522828116029 3.990000037920278 1 0 2
1297 1 10.388244308932697 4.5160597823942075 0.7010954269422762 1 0 2
1279 3 13.217116530419082 1.4637705716850187 0.4117170731764175 1 0 2
1299 5 13.180207375443217 4.591346992727711 0.5676025883177851 1 0 2
1277 5 10.33981153070259 1.4488238556816695 0.34604951358368186 1 0 2
1298 5 11.781378793841194 6.075186813321059 2.4537334435874056 1 0 2
1496 4 8.347787419645716 5.922149967993796 5.871522244770367 1 0 2
1280 2 14.504963490946372 2.7124008284710968 2.307330154089532 1 0 2
1260 3 14.471521852308662 -0.28547849782464757 2.2317618155639076 1 0 2
1480 4 14.65534883593118 2.836244205155204 5.358567371755945 1 0 2
1460 4 14.81756870996006 -0.29111831350773887 5.3270611511938935 1 0 2
1461 2 15.985657003601165 1.4099096948458 3.8695428139430126 0 0 2
1462 2 17.961238973569 2.7344527286363314 5.179441495411337 0 0 2
1444 4 20.11850012980984 -0.1569520431256331 5.333845674757934 0 0 2
1442 4 17.835031914022515 0.10206153111083727 5.105598478333627 0 0 2
1464 4 20.25818128711423 2.4620064543682596 4.946190907199152 0 0 2
1463 5 19.16050701070043 0.952085708013783 3.798720329282242 0 0 2
1481 5 16.377980549939423 4.396031137209052 3.6336835175612094 0 0 2
1262 4 18.1034059153646 2.4042406905251625 2.6009265958137013 0 0 2
1242 4 17.701784874588324 0.03728245152409276 2.377202624909535 0 0 2
1244 4 20.322710563343747 -0.20035506578171824 2.4224394999148595 0 0 2
1483 4 19.25366396764143 4.677193416018158 3.6651330317699937 0 0 2
1283 3 19.026400868083133 4.2977011886656475 0.9413333624337419 0 0 2
1281 1 16.24607611125586 4.149916347516846 0.8842471950959407 0 0 2
1263 1 19.007347888555888 1.4431622728041498 0.5655020170118195 0 0 2
1261 5 16.177397128520198 1.338326315937607 0.7784371631093527 0 0 2
1482 4 17.884651864938363 5.627172748021121 5.648564279972388 0 0 2
1500 4 14.915660002569982 5.792015638150749 5.286740103444295 1 0 2
1264 1 20.5007874121133 2.702763610505202 2.2943590898486934 0 0 2
1485 5 21.853428132705137 4.5544891464096855 3.8593867939142052 0 0 2
1465 1 21.947238595439153 0.9175667635467957 4.065009639679601 0 0 2
1466 2 23.377613816649017 2.8766973653928 5.280373392844619 0 0 2
1448 2 26.33807072166897 31.087312639608854 5.915835469816692 0 -1 2
1468 5 26.152240529834604 2.868150245130917 5.510007529737419 0 0 2
1467 4 24.730737735605604 0.9279333215730188 4.2678732625761935 0 0 2
1268 2 26.212745059291063 2.5871236445462964 2.909424354889792 0 0 2
1266 5 23.48088102569433 2.362102780146019 2.5347561135805066 0 0 2
1487 1 24.74491002478168 4.673549215381226 3.7322305017031185 0 0 2
1248 5 26.28804818208712 -0.17817756724471062 2.428856926184237 0 0 2
1285 3 22.021283492060984 4.034878885949964 0.7098584411910949 0 0 2
1287 3 25.019699653239446 4.172779102222452 0.9304771797446192 0 0 2
1265 3 22.16554940511569 1.2246047515891778 0.5435864143436397 0 0 2
1267 1 25.035321874672665 1.2673704737027804 0.49650194200894804 0 0 2
1484 4 20.312814037448465 5.770680750629963 5.6531755579505045 0 0 2
1446 4 23.390250586256155 31.279913370858456 5.698818621439312 0 -1 2
1488 4 26.31182093700249 5.849591935364769 5.868798123170793 0 0 2
1486 1 23.110780996155377 5.676808023412323 5.962484077964448 0 0 2
1489 1 27.57705761326575 4.5679965513157414 4.071580449258976 0 0 2
1289 3 27.83731736628902 4.472946950206045 0.9584142770836004 0 0 2
1469 2 27.890708724872113 0.8993310577759348 4.438058876997887 0 0 2
1470 1 29.109739234922813 2.9874388999473847 5.489591849201114 0 0 2
1270 5 29.19977640554203 2.5605663290242506 2.7016473580779317 0 0 2
1250 3 29.268578151317016 -0.28836907106701126 2.35401831300634 0 0 2
1269 3 27.6646729203745 1.402947640809664 0.651659778352591 0 0 2
1490 5 29.186576482026293 5.960486573691691 5.861578662897225 0 0 2
1514 4 6.606820670750328 9.080664249714252 5.738249376979526 1 0 2
1513 5 4.717337602917329 7.772160518060467 3.9145476967029262 1 0 2
1512 1 2.815740900604923 9.815413498436397 5.10219115207508 1 0 2
1533 3 4.8296001166738085 10.848270910787727 3.606080026943034 1 0 2
1314 2 6.167878939369957 8.96180939417341 1.948126901745212 1 0 2
1294 3 6.2235577212615105 6.190433048396212 2.2749360841648105 1 0 2
1312 3 3.166392807081806 9.202865806626706 2.303467735072271 1 0 2
1292 1 3.314869364412632 6.260584569614262 2.2188122044044216 1 0 2
1333 1 4.82423514389915 10.689886105575338 0.661576063233474 1 0 2
1511 1 2.0042456832212867 7.40281245437146 4.261688881547475 1 0 2
1331 1 1.6699229006345846 10.702382885738988 0.7703086793044092 1 0 2
1531 3 1.5561425764718957 11.222900844084572 3.368154403866014 1 0 2
1313 3 4.78008447347376 7.861751924601803 0.200416998154196 1 0 2
1311 3 1.9094247735231904 7.898233843960234 0.2878199687733951 1 0 2
1532 5 3.1570449472233606 12.434858489718371 5.296068317257676 1 0 2
1335 3 7.5780320776860535 10.81619552607881 0.6434629065819297 1 0 2
1315 3 7.777560701040371 7.518529125618081 0.30029689776943624 1 0 2
1296 1 9.02724591578069 6.127122933638245 2.2568208897282234 1 0 2
1535 3 7.601385926973206 10.984932054475962 3.5859391699258554 1 0 2
1515 4 7.660952907143544 7.685757398701908 4.382160196373765 1 0 2
1516 2 9.103665725764131 9.60218390583603 5.494100935752728 1 0 2
1498 2 12.152152775780484 6.147657386075419 5.3669493096907095 1 0 2
1518 5 11.84472074529421 9.354934679047773 5.301938994356286 1 0 2
1517 2 10.173077478173077 7.2303942903646705 4.314885710185958 1 0 2
1519 2 13.576833799590005 7.799960380687608 4.05350345162748 1 0 2
1539 2 13.349548880613396 10.841486974908134 3.6035266218148907 1 0 2
1318 3 11.85006972676027 8.814466871239414 2.3571018707331457 1 0 2
1316 5 8.869873028886236 8.919438008227573 2.4392904300078744 1 0 2
1537 3 10.465622736193893 10.935204356625466 3.5299156459944108 1 0 2
1337 1 10.44631894765119 10.341454173355093 0.7175665374158513 1 0 2
1339 5 13.473040998026066 10.743008058668105 0.7758998386745755 1 0 2
1319 3 13.523947013166405 7.634999372164579 0.4798753533162987 1 0 2
1317 5 10.495151889979002 7.582430236453069 0.28485518691152634 1 0 2
1538 2 12.149923701790105 12.469445766298719 5.3224172504357465 1 0 2
1536 2 9.105285003862758 12.389700072384308 5.4728698957053625 1 0 2
1300 1 14.878115254606637 6.156213391642194 2.2197981157582403 1 0 2
1320 3 15.001257701789916 9.217767149492857 2.4612285257792825 1 0 2
1520 4 14.989177426360099 9.58200278181052 5.246272632933318 1 0 2
1501 5 16.496375572301584 7.396115566968219 4.327460481480777 0 0 2
1502 2 17.758759179589642 9.548153772065815 5.226582609489403 0 0 2
1503 2 19.16586814829226 7.3715289241016055 4.163169814768911 0 0 2
1521 1 16.321364172008145 11.076107468712637 3.662709448697478 0 0 2
1282 1 17.873167155937228 6.236911301984813 2.163327673484803 0 0 2
1302 3 17.833430023870417 9.155884228418548 2.4285307406076035 0 0 2
1284 5 20.736000520152075 6.142967244272307 1.9404617446402779 0 0 2
1523 5 19.359940538774417 11.05745282925305 3.525380632329722 0 0 2
1323 1 19.229914154106517 10.556712419418343 0.7435431611994798 0 0 2
1321 1 16.258903628790534 10.78788453217756 0.7749100326254148 0 0 2
1301 3 16.389688645528892 7.907094615406793 0.4976251464178505 0 0 2
1303 5 19.245442444464093 7.742210361658731 0.4111086266213877 0 0 2
1540 5 14.846913947241816 12.483842711641461 5.316791433619968 1 0 2
1504 5 20.716278914413166 9.306112696230974 5.498995918911222 0 0 2
1304 1 20.64285630942829 8.965111621623047 2.4538953130532715 0 0 2
1505 2 22.032679063013497 7.433250804775152 4.124491605478608 0 0 2
1506 2 23.574316518515673 9.632353274958705 5.3746872045505585 0 0 2
1508 2 26.255172579847457 9.504761142380266 5.499037452825302 0 0 2
1507 5 24.952196795477782 7.391490383432425 4.277483039427297 0 0 2
1308 1 26.39485578643595 8.968687339151456 2.5200862391178984 0 0 2
1306 2 23.257853798815514 9.017095553298363 2.5321650170551933 0 0 2
1527 5 24.950903414592677 11.033692338705576 3.6372265592691067 0 0 2
1288 3 26.364807291343283 6.156793468415332 2.2786999525190996 0 0 2
1286 1 23.413832468094963 6.125048076197356 2.0995644212600575 0 0 2
1525 4 22.110730875617985 11.171650848191726 3.584614026882229 0 0 2
1325 3 22.12878952251561 10.629047321352118 0.7157744347487272 0 0 2
1327 3 24.957046575991257 10.525770428146089 0.9293860965008967 0 0 2
1305 3 22.287036924912773 7.837923097800106 0.30915515748885003 0 0 2
1307 5 25.130675635475686 7.7501477218500625 0.4002249000749898 0 0 2
1528 4 26.32129843919999 12.373108216088353 5.525270067643327 0 0 2
1526 1 23.333773276550424 12.390001728501376 5.5242151877527474 0 0 2
1509 2 27.581331624312305 7.477375122784556 4.202931931541228 0 0 2
1529 1 27.708887828715277 11.25042770482414 3.5077376448556032 0 0 2
1329 3 27.740335057506453 10.491055993450091 0.6761270140830529 0 0 2
1510 5 28.770897736837533 9.55394964775189 5.291446173734971 0 0 2
1310 5 29.117779033102703 9.021281363531903 2.483687589257159 0 0 2
1290 3 29.358406681273653 6.261214396042265 2.4301298891453706 0 0 2
1309 1 27.82312514357795 7.664807872075576 0.3958512276277013 0 0 2
1530 2 29.18169025926484 12.33705653679792 5.400369173521379 0 0 2
1332 5 3.2625095547524867 12.75419535360977 2.005557390074944 1 0 2
1534 2 6.291290397247744 12.35993133120443 5.257991853893912 1 0 2
1554 3 6.197930695943904 16.043594214913433 4.9529405733658285 1 0 2
1553 1 4.764826569300915 14.216363507705736 3.916791956792668 1 0 2
1552 5 3.387863293933958 16.122944908182603 5.159615943251038 1 0 2
1354 3 6.061687793743838 15.620174417157932 1.9562647619461142 1 0 2
1352 1 3.194108485493201 15.425288506156699 2.130298301216936 1 0 2
1573 3 4.713090623386893 17.776249432068646 3.264176152322034 1 0 2
1334 5 6.065606957248796 12.905625595603524 1.8672984617996842 1 0 2
1371 3 1.737373766545893 17.1674465949718 0.5351861586197069 1 0 2
1551 3 1.656401399046545 14.141509757547222 3.9030595964605963 1 0 2
1571 3 1.7270573076718403 17.685892727324877 3.34626463700432 1 0 2
1373 5 4.578019283646292 17.144713785308305 0.35373774506982736 1 0 2
1353 1 4.6126586255480095 14.37189729205119 0.004689810454395427 1 0 2
1351 3 1.9281790364520779 14.358116486215215 0.26527358192163897 1 0 2
1572 3 3.2738813073167887 18.996552159770978 5.328154844352323 1 0 2
1355 3 7.684566667738675 14.28849724064637 0.3256916874034832 1 0 2
1574 1 6.115103826176748 19.06735311769968 5.364324254439915 1 0 2
1375 1 7.569708657691815 17.30440911778679 0.4831336805394717 1 0 2
1575 5 7.435610966132178 17.708370092269504 3.347111568569696 1 0 2
1555 2 7.6217921041517 13.87047383836006 3.7375043399465335 1 0 2
1356 3 9.028634509757609 15.643534305896091 2.120792199245671 1 0 2
1556 3 9.111318788984775 15.729909410075754 5.095103142455339 1 0 2
1558 5 12.1537712432691 16.184297038433144 5.252835934997831 1 0 2
1557 5 10.514371378297703 13.970518333604131 3.7334368358004513 1 0 2
1559 2 13.502271026464161 14.369778564502615 3.739681529948487 1 0 2
1358 1 12.115707267504355 15.602071713377292 2.0960503192144375 1 0 2
1336 1 9.046523255553435 12.627288208557369 1.8032003569919297 1 0 2
1338 3 12.132618446974522 12.668103393340001 2.122678955942247 1 0 2
1579 5 13.364194351379076 17.63309281991289 3.248308566714318 1 0 2
1577 2 10.416664714359053 17.7056578018271 3.531166145980878 1 0 2
1379 1 13.45121383549648 17.15238669365244 0.43707952924064974 1 0 2
1377 3 10.478844859008626 17.1943060862514 0.5797559962264947 1 0 2
1359 3 13.564320711506957 14.331755009694062 0.3496888692802622 1 0 2
1357 1 10.621338269993142 14.332752218920946 0.22342806664388437 1 0 2
1576 3 9.000187536854348 18.868049236911993 5.31690752553342 1 0 2
1578 1 12.024899196830289 18.835718282890333 5.298994091457429 1 0 2
1360 1 15.055123625969797 15.755434671439643 2.2812448665514853 1 0 2
1340 5 14.938626636846863 12.707173174927885 1.994066208484072 1 0 2
1560 5 15.124063818845103 16.179247360143243 4.942442989462278 1 0 2
1541 4 16.467712811621087 13.9232478319066 3.825373922171492 0 0 2
1522 4 17.811490454809572 12.249292256844315 5.334569245977246 0 0 2
1542 2 17.740062748337916 16.236481652691353 5.106278507556423 0 0 2
1543 2 19.212401103689846 13.80428766742994 3.8367475625644767 0 0 2
1342 5 17.730442235762073 15.56693473385313 2.280240485834726 0 0 2
1322 3 17.812777038159705 12.634018449592702 1.9329619838781125 0 0 2
1563 2 19.08718056622223 17.724447375952664 3.623997970064168 0 0 2
1561 4 16.642306374952586 18.013249963637385 3.7804466664069443 0 0 2
1361 1 16.18967168434925 17.349467040261736 0.5090428270900789 0 0 2
1363 3 19.247218221958867 17.142982900295507 0.782295027767901 0 0 2
1343 2 19.230951477150846 14.4473651949539 0.28210747350134 0 0 2
1341 3 16.545407937517016 14.330413366036096 0.2297846167989488 0 0 2
1344 2 20.652363516718562 15.487425769919124 2.4803043572185888 0 0 2
1324 3 20.711204603902438 12.714192033248873 1.9626134406747124 0 0 2
1524 2 20.687025537171547 12.343320430926045 5.409165126873061 0 0 2
1544 5 20.621725767260425 15.938186493818188 5.394618414268922 0 0 2
1545 4 21.92404320909728 14.07145040478119 4.051372893562648 0 0 2
1546 4 23.387749246395426 16.051166983335214 5.280399537931216 0 0 2
1548 1 26.09668349873153 16.04940057148017 5.330004237915907 0 0 2
1547 5 24.733153016747597 13.995371082323011 3.990211368745255 0 0 2
1346 1 23.355492947406752 15.491517093032707 2.356523079277035 0 0 2
1348 3 26.282342651822944 15.73531223478504 2.286179631382358 0 0 2
1565 5 22.0068502638122 17.70370933806528 3.541427700662407 0 0 2
1326 1 23.49643969246738 12.754103377438517 2.00959657251128 0 0 2
1328 1 26.148359853010003 12.957450134217057 1.955142488296799 0 0 2
1567 3 24.784653647144122 17.58387295528634 3.3461942734687513 0 0 2
1365 2 21.9567302491746 17.052817575947053 0.7315693868937252 0 0 2
1367 3 24.736845076976547 17.235335539681884 0.512636277605709 0 0 2
1347 3 24.989098023344802 14.444942441843262 0.3772153048677003 0 0 2
1345 5 22.16201963841711 14.414660824741924 0.2247683789534265 0 0 2
1549 1 27.634988993363812 13.922783382374474 4.006919764255375 0 0 2
1569 2 27.68557801487028 17.798632697257787 3.4233820185421413 0 0 2
1550 5 29.064376137222926 16.213795650845974 5.192172311682243 0 0 2
1350 3 29.030378896031472 15.67654987258648 2.3570775770398993 0 0 2
1330 5 28.940681403748474 12.793768980405382 1.8524854573199496 0 0 2
1369 1 27.669610972208094 17.283031629334026 0.565412909887246 0 0 2
1349 1 27.635120946810886 14.568958145450036 0.19443848212419934 0 0 2
1594 3 6.128150235775953 22.543766409010864 4.664721858068512 1 0 2
1595 1 7.658919544022033 20.49525620777677 3.6948243587695115 1 0 2
1593 1 4.747076899753402 20.56779162615866 3.57779978283065 1 0 2
1592 3 3.2189120480536015 22.745611696258408 4.876124869941436 1 0 2
1394 5 6.233993517605856 22.11956091951064 1.9734159992265305 1 0 2
1392 1 3.258999944958848 22.350230602725652 1.87978199938498 1 0 2
1372 1 3.2965963308866693 19.354135755948512 1.58211377068017 1 0 2
1374 3 6.2390254285665225 19.367842445994633 1.4372358662185594 1 0 2
1413 3 4.7903406895806455 24.327488576593524 3.187789724073107 1 -1 2
1591 5 1.917635344378625 20.60859170836939 3.620060242900781 1 0 2
1411 5 1.7464646549645533 24.30134432758247 3.3201040353192424 1 -1 2
1211 1 1.8803471157844331 24.014358984095402 0.48041504491910314 1 -1 2
1213 3 4.808179566113726 23.780666666138323 0.3899758195336054 1 -1 2
1215 3 7.728316757653078 23.776525164013364 0.24403095727981072 1 -1 2
1391 3 2.0422750229102453 20.924117728738864 -0.07687224619025201 1 0 2
1393 1 4.840132194531376 21.001566758620328 -0.21896444389077152 1 0 2
1395 3 7.668855149051433 20.90104849780839 -0.13448669198939012 1 0 2
1412 1 3.1709841330797035 25.646435842584594 5.403541374700593 1 -1 2
1415 1 7.663828174641581 24.277481795381696 2.996483702458601 1 -1 2
1596 1 9.028529763058616 22.44617493489136 4.582834602945054 1 0 2
1598 3 11.938519206474673 22.538054398489066 4.7008224644921714 1 0 2
1597 3 10.548097031696164 20.425530373818482 3.6090088471893935 1 0 2
1599 2 13.345836558571422 20.421116258429272 3.6897995158309076 1 0 2
1398 1 11.973193305549916 22.127748702591454 1.8642378180950159 1 0 2
1396 3 9.139208725081232 22.116293457702184 2.0386245948470334 1 0 2
1417 5 10.62630097867012 24.125944830750207 3.046495492834255 1 -1 2
1378 3 12.034311110465701 19.373000691275223 1.6477906285755628 1 0 2
1419 3 13.315639403136068 24.303352055713717 3.2254143326533584 1 -1 2
1376 5 8.978927991521768 19.329811011697892 1.7154430416546584 1 0 2
1219 3 13.453640232722696 23.86456851661425 0.2643787641624391 1 -1 2
1217 1 10.475190071702473 23.77673410150485 0.422234882458991 1 -1 2
1399 5 13.45115126464145 20.810727173409568 -0.06070592242376194 1 0 2
1397 1 10.476800578949423 21.03813892249034 -0.03460749880416902 1 0 2
1400 5 14.890964123972642 22.198032526961583 2.1140219552244344 1 0 2
1600 1 14.783653018326843 22.374264602231094 4.87555838626411 1 0 2
1580 4 14.961541594662824 18.930353528303662 5.125144118091643 1 0 2
1380 3 14.892500448021902 19.25827494510891 1.7800666119967725 1 0 2
1581 1 16.42925139208008 20.51058003874732 3.7176832962589703 0 0 2
1562 5 17.744294379788858 18.93730046349185 5.345138048948513 0 0 2
1564 4 20.435237602569487 19.08526062536366 5.128319666001506 0 0 2
1582 5 17.837350927197242 22.475055864404816 5.0073375270536635 0 0 2
1583 1 19.079254579628476 20.5513618587133 3.7215210852442926 0 0 2
1382 3 17.926582521978787 22.22243998508649 1.939235041271481 0 0 2
1403 3 19.14208258279895 24.32478716147019 3.2998946716392945 0 -1 2
1401 5 16.163470280548125 24.229884277078952 3.1347261791195917 0 -1 2
1364 1 20.64165137421827 19.282139970167066 1.7863051472650118 0 0 2
1362 5 17.832432087626064 19.264922380410574 1.8131420797531521 0 0 2
1203 3 19.38462408432098 23.682829625640814 0.2590746289285455 0 -1 2
1201 1 16.36219669989497 23.868904387611813 0.34622099330108114 0 -1 2
1381 1 16.300029699026688 20.983328074883772 0.25651917395329726 0 0 2
1383 1 19.210935525405002 20.91567697897471 -0.06605929157961554 0 0 2
1402 2 17.44070726662904 25.34736876908709 5.113529835823582 0 -1 2
1384 5 20.65749664207827 22.031619844981464 2.0580827096036884 0 0 2
1584 1 20.55433949138209 22.441655844308123 4.975035616313947 0 0 2
1404 2 20.51551341220078 25.434688014820267 5.244543514484932 0 -1 2
1420 2 14.766525386224366 25.787931035436863 5.328267028708318 1 -1 2
1585 4 21.945108436733097 20.505026385644634 3.7000227948970332 0 0 2
1586 5 23.357168841920632 22.489915229383584 5.024645059543601 0 0 2
1566 2 23.475666423904514 19.184362635099696 5.209826519591664 0 0 2
1568 5 26.25435632473435 19.01816409161235 5.311303294402532 0 0 2
1588 3 26.29728973013075 22.529450469453373 4.931359896523441 0 0 2
1587 2 24.837165791763006 20.6214323001754 3.649064892113775 0 0 2
1386 3 23.327647712249437 22.14248083786449 2.2007513436293835 0 0 2
1388 3 26.499393505420333 22.275953224332653 2.201313928573155 0 0 2
1366 1 23.26001777314967 19.418878984499408 1.5347006147231395 0 0 2
1368 5 26.226944891198123 19.319286102411716 1.781883521308436 0 0 2
1407 2 24.894857353697603 24.30831005116039 3.245870634887596 0 -1 2
1405 3 22.095526386512997 24.42094966603529 3.267167919403329 0 -1 2
1205 1 22.092154847688455 23.691830301502677 0.40195196020120205 0 -1 2
1207 1 24.983043592171683 23.672716100674243 0.24098543402084993 0 -1 2
1387 3 24.896466277531683 20.98165983496215 0.06580444144382436 0 0 2
1385 3 21.896556063203498 20.852679354867767 -0.12141848391691412 0 0 2
1408 5 26.380478101698973 25.418951724849137 5.256951603979374 0 -1 2
1570 2 29.213192751425833 19.125509347242485 5.423355184187074 0 0 2
1409 2 27.80871680334971 24.316273989668147 3.2696627269784013 0 -1 2
1589 2 27.854953992024953 20.538939288963917 3.687188917756986 0 0 2
1590 3 29.164682230185935 22.787237048067432 4.883673032941152 0 0 2
1390 3 29.29953953490557 22.233663371728746 1.9946750212971898 0 0 2
1370 5 29.14781341513213 19.356742136393834 1.6556541458557676 0 0 2
1209 5 27.84985452097403 23.838319290896997 0.2432353584556992 0 -1 2
1389 2 27.925201758703814 21.003963957599908 0.1366591331287721 0 0 2
1414 5 6.404847469764664 25.40074672899548 5.188819231561307 1 -1 2
1453 3 4.912896396814462 29.908122055978097 3.9673940039142783 1 -1 2
1434 1 6.35076084607422 28.215286945479086 5.449725560829456 1 -1 2
1433 1 4.657067203779625 27.08824019874404 3.593726451829747 1 -1 2
1432 3 3.195740132965076 28.391077731009 5.711481282298476 1 -1 2
1234 3 6.2209240651876625 28.731951940710246 1.7333862533617452 1 -1 2
1232 5 3.3301693555136436 28.660674058785382 2.0130865419126174 1 -1 2
1214 5 6.232728769518143 26.04029077304574 1.4933144462184709 1 -1 2
1212 1 3.1539251216424735 25.93184929202159 1.4700551091557674 1 -1 2
1451 1 2.052854009952748 30.08093260867279 4.1024963281780265 1 -1 2
1431 3 1.893439123562151 27.15361206430459 3.652418216666314 1 -1 2
1253 1 4.660993289003493 30.258178523920762 0.11794866663747094 1 -1 2
1251 3 1.7861941934974097 30.410775879776196 0.028654927018659238 1 -1 2
1235 1 7.7067229494477365 27.44299877842969 -0.18838329091934347 1 -1 2
1233 3 4.624641935197405 27.570033373762065 -0.09515518136449386 1 -1 2
1231 5 1.8160721293574014 27.50273444728016 -0.15402236295484506 1 -1 2
1255 3 7.611736262729728 30.42952784211689 0.22572786213588114 1 -1 2
1455 2 7.663191767288177 29.93525211287802 3.91097624092626 1 -1 2
1435 3 7.755537428690091 27.15498371576404 3.424213875676955 1 -1 2
1416 5 9.103826819177332 25.319878875019846 5.099412729699063 1 -1 2
1418 2 12.063949584683225 25.59827710893981 5.1617026155766546 1 -1 2
1459 2 13.472670670207082 29.825444651942433 3.9491624089759876 1 -1 2
1457 5 10.712592698976376 30.235261232191156 3.894011013308396 1 -1 2
1436 5 9.241010614296624 28.498458877473503 5.427077205074002 1 -1 2
1438 4 11.836955426130277 28.267653986942406 5.302498165256156 1 -1 2
1439 5 13.371977967370078 27.132104322603006 3.4339268179761797 1 -1 2
1437 1 10.69684830620554 27.140669868669832 3.399881579929593 1 -1 2
1238 1 11.99728752478772 28.74143628291133 1.6595167616506332 1 -1 2
1236 3 9.23968669473646 28.84132844254018 1.893900636213127 1 -1 2
1218 1 11.915466863940027 25.8659521914551 1.2795620249097577 1 -1 2
1216 3 9.128549523075653 25.784540826667154 1.4067493793669148 1 -1 2
1257 3 10.572064456896832 30.385926417306628 -0.00848195439063748 1 -1 2
1259 5 13.504098752597134 30.376835313108344 -0.1168443905030313 1 -1 2
1239 3 13.431376464901437 27.28680241012526 -0.29998125322810115 1 -1 2
1237 5 10.57500955222911 27.572479100315427 -0.4278985860071143 1 -1 2
1240 1 14.829671480166759 28.830845724027043 1.665954138743404 1 -1 2
1220 3 14.90224980057726 25.877116760383394 1.5566373915477523 1 -1 2
1440 4 14.829515785015387 28.280049935192153 5.392230088903834 1 -1 2
1443 1 18.93106708870551 30.006362609678156 3.734012720168187 0 -1 2
1441 5 16.28269144375816 29.962564914423716 3.643556997152272 0 -1 2
1422 4 17.844797482528083 28.255864030220394 5.403322654520085 0 -1 2
1423 5 19.069479883430677 27.154235875378603 3.4428157531585253 0 -1 2
1421 1 16.236935077499304 27.275476649727672 3.416493413892505 0 -1 2
1222 3 17.74409193425172 28.64285859019791 1.7543485970279011 0 -1 2
1202 1 17.807086807279667 25.73154244382893 1.3499582164462294 0 -1 2
1243 5 19.19164977956906 30.41244531439969 0.3744524863537668 0 -1 2
1241 1 16.18896599115991 30.37238226087097 0.07403568244486036 0 -1 2
1223 1 19.18021709884354 27.530378763869976 -0.24615327394329323 0 -1 2
1221 5 16.24248082313396 27.568393860750163 -0.2047282834637445 0 -1 2
1204 5 20.548672379427696 25.747503447204565 1.6215316771346688 0 -1 2
1424 4 20.546135603657103 28.2698930333885 5.707243516660281 0 -1 2
1224 2 20.572263136671598 28.78162272062648 1.9426828833305478 0 -1 2
1246 1 23.46862274915082 31.296587977095523 2.168569830742141 0 -1 2
1406 5 23.422289813249225 25.60167201617017 5.381384124199027 0 -1 2
1445 5 21.791011253577242 29.9010876437195 4.049112501705874 0 -1 2
1447 2 24.776203540140354 29.869535901582978 3.9638895973210166 0 -1 2
1425 2 21.67024380973486 27.19023531327293 3.760796179047496 0 -1 2
1426 2 23.32762201142087 28.36933971319153 5.655936707102561 0 -1 2
1428 2 26.335163361879903 28.3195310719329 5.842514337964679 0 -1 2
1427 2 24.91832822358756 27.31015211699274 3.6617596713837024 0 -1 2
1226 3 23.28716848088625 28.54280485338319 1.9643707494178915 0 -1 2
1228 3 26.374642500110138 28.589585739061533 1.7783888232734184 0 -1 2
1208 5 26.17622270936726 25.826209642814838 1.5668015726528566 0 -1 2
1206 1 23.427627685352704 25.809400637622204 1.3896711518304912 0 -1 2
1245 3 21.99746944137127 30.34053251049764 0.30985009472589287 0 -1 2
1247 5 24.738776429787404 30.30197497098426 0.17838492263485972 0 -1 2
1225 5 21.83559607148648 27.445104049897118 -0.22992114674356523 0 -1 2
1227 3 24.719598243794998 27.5031642394568 -0.18122630689166386 0 -1 2
1429 2 27.802839604421074 27.100687786459936 3.700016250411063 0 -1 2
1449 5 27.76827440632877 29.791991355037446 4.010354030331749 0 -1 2
1430 5 29.436748967728754 28.282119452455845 5.822280742885938 0 -1 2
1410 2 29.07601274344534 25.542967981212023 5.306100634049021 0 -1 2
1230 1 29.20733756233031 28.74112964686062 2.021580721777527 0 -1 2
1210 3 29.205324044114633 25.967801258193 1.636256719840472 0 -1 2
1249 1 27.85483580617739 30.181719931418485 0.31245802244165555 0 -1 2
1229 3 27.66117737414003 27.258680277130487 -0.2699755099351744 0 -1 2
1492 4 3.3136889681390698 5.814975441210794 5.741377639395397 1 0 2
1673 4 4.68649470896538 1.465613221690595 7.087003256317615 1 0 2
1675 2 7.609979876657671 1.5114772884820176 7.181311928075375 1 0 2
1671 5 1.7407356470295232 1.328856041361504 7.0573183968546065 1 0 2
1693 4 4.920775106500046 4.665260960096224 7.213523104058196 1 0 2
1695 5 7.086276002744737 4.955145240214086 7.275560362432323 1 0 2
1674 4 6.322265129057456 3.3135191538526843 8.532009024026017 1 0 2
1654 4 6.166216404846372 -0.13002456795852263 8.714608118253967 1 0 2
1652 2 3.3154463129018 -0.13993244266222685 8.968919189943636 1 0 2
1672 2 3.1642865468334875 2.759733733161589 8.784303618240086 1 0 2
1873 2 5.081921366685494 1.4709259861849153 10.306300381808658 1 0 2
1874 2 6.197706106443462 3.568383117614159 11.427947532869716 1 0 2
1854 2 6.318928584962888 -0.3439709733738327 11.675965439432392 1 0 2
1872 4 3.510214098787332 3.3740447747805957 11.378926402959278 1 0 2
1852 4 3.512606893944507 -0.13277297535556493 11.751205348063571 1 0 2
1871 4 2.1490332284250573 1.5094535051877471 10.531224855914985 1 0 2
1893 4 4.818328429335507 4.949912741196925 9.823781181121051 1 0 2
1895 4 7.188007519728921 5.205221712414111 9.534651888986605 1 0 2
1891 4 1.8933979593350803 4.747162378811419 10.140920925882567 1 0 2
1691 2 1.8040142960954486 4.405157787267422 7.378673449300997 1 0 2
1875 4 7.659153163867064 1.717756821761025 10.147793348728593 1 0 2
1452 2 3.5558420178088554 -0.35040969818850193 5.810024167984862 1 0 2
1456 4 9.06616319554725 31.25613117221937 5.9609516283318 1 -1 2
1458 4 11.483286808087977 -0.18769369743197226 5.8927558497455585 1 0 2
1697 4 10.442033207812528 4.930748236544456 6.914345844979274 1 0 2
1677 4 10.357368945330098 1.53102677996423 6.998006806133547 1 0 2
1679 2 13.418123759697279 1.0625690373410732 7.0063616600921375 1 0 2
1699 4 13.434659556116333 4.557374225859614 6.921432551443941 1 0 2
1876 4 8.82525501252956 3.567812859514456 11.170353402211788 1 0 2
1676 2 9.044912869923078 3.510878718420198 8.475052039756056 1 0 2
1678 2 11.900492661293256 3.1030111572714616 8.3752519324565 1 0 2
1856 2 9.032225411611059 0.03740123731918049 11.545565653090444 1 0 2
1656 2 8.871902222446247 -0.16038470494811424 8.69292873442441 1 0 2
1658 4 11.826049637119768 -0.1947489755506415 8.63336971421975 1 0 2
1879 4 13.292902334596626 1.3044902712949673 9.940509218169895 1 0 2